VARIABLES  = "X","Y","Z", "PRESSURE1", "PRESSURE2"
ZONE T="0.000000000000e+00s", N=1681, E=1600, F=FEPOINT, ET=QUADRILATERAL
STRANDID=1, SOLUTIONTIME=0.000000000000e+00
0.000000000000e+00 0.000000000000e+00 0.000000000000e+00 1.875000000000e+06 1.013250000000e+05 
1.500000000000e+00 0.000000000000e+00 0.000000000000e+00 1.875000000000e+06 1.013250000000e+05 
1.500000000000e+00 7.500000000000e-01 0.000000000000e+00 1.875000000000e+06 1.013250000000e+05 
0.000000000000e+00 7.500000000000e-01 0.000000000000e+00 1.875000000000e+06 1.013250000000e+05 
1.500000000000e+00 1.500000000000e+00 0.000000000000e+00 1.875000000000e+06 1.013250000000e+05 
0.000000000000e+00 1.500000000000e+00 0.000000000000e+00 1.875000000000e+06 1.013250000000e+05 
1.500000000000e+00 2.250000000000e+00 0.000000000000e+00 1.875000000000e+06 1.013250000000e+05 
0.000000000000e+00 2.250000000000e+00 0.000000000000e+00 1.875000000000e+06 1.013250000000e+05 
1.500000000000e+00 3.000000000000e+00 0.000000000000e+00 1.875000000000e+06 1.013250000000e+05 
0.000000000000e+00 3.000000000000e+00 0.000000000000e+00 1.875000000000e+06 1.013250000000e+05 
1.500000000000e+00 3.750000000000e+00 0.000000000000e+00 1.875000000000e+06 1.013250000000e+05 
0.000000000000e+00 3.750000000000e+00 0.000000000000e+00 1.875000000000e+06 1.013250000000e+05 
1.500000000000e+00 4.500000000000e+00 0.000000000000e+00 1.875000000000e+06 1.013250000000e+05 
0.000000000000e+00 4.500000000000e+00 0.000000000000e+00 1.875000000000e+06 1.013250000000e+05 
1.500000000000e+00 5.250000000000e+00 0.000000000000e+00 1.875000000000e+06 1.013250000000e+05 
0.000000000000e+00 5.250000000000e+00 0.000000000000e+00 1.875000000000e+06 1.013250000000e+05 
1.500000000000e+00 6.000000000000e+00 0.000000000000e+00 1.875000000000e+06 1.013250000000e+05 
0.000000000000e+00 6.000000000000e+00 0.000000000000e+00 1.875000000000e+06 1.013250000000e+05 
1.500000000000e+00 6.750000000000e+00 0.000000000000e+00 1.875000000000e+06 1.013250000000e+05 
0.000000000000e+00 6.750000000000e+00 0.000000000000e+00 1.875000000000e+06 1.013250000000e+05 
1.500000000000e+00 7.500000000000e+00 0.000000000000e+00 1.875000000000e+06 1.013250000000e+05 
0.000000000000e+00 7.500000000000e+00 0.000000000000e+00 1.875000000000e+06 1.013250000000e+05 
1.500000000000e+00 8.250000000000e+00 0.000000000000e+00 1.875000000000e+06 1.013250000000e+05 
0.000000000000e+00 8.250000000000e+00 0.000000000000e+00 1.875000000000e+06 1.013250000000e+05 
1.500000000000e+00 9.000000000000e+00 0.000000000000e+00 1.875000000000e+06 1.013250000000e+05 
0.000000000000e+00 9.000000000000e+00 0.000000000000e+00 1.875000000000e+06 1.013250000000e+05 
1.500000000000e+00 9.750000000000e+00 0.000000000000e+00 1.875000000000e+06 1.013250000000e+05 
0.000000000000e+00 9.750000000000e+00 0.000000000000e+00 1.875000000000e+06 1.013250000000e+05 
1.500000000000e+00 1.050000000000e+01 0.000000000000e+00 1.875000000000e+06 1.013250000000e+05 
0.000000000000e+00 1.050000000000e+01 0.000000000000e+00 1.875000000000e+06 1.013250000000e+05 
1.500000000000e+00 1.125000000000e+01 0.000000000000e+00 1.875000000000e+06 1.013250000000e+05 
0.000000000000e+00 1.125000000000e+01 0.000000000000e+00 1.875000000000e+06 1.013250000000e+05 
1.500000000000e+00 1.200000000000e+01 0.000000000000e+00 1.875000000000e+06 1.013250000000e+05 
0.000000000000e+00 1.200000000000e+01 0.000000000000e+00 1.875000000000e+06 1.013250000000e+05 
1.500000000000e+00 1.275000000000e+01 0.000000000000e+00 1.875000000000e+06 1.013250000000e+05 
0.000000000000e+00 1.275000000000e+01 0.000000000000e+00 1.875000000000e+06 1.013250000000e+05 
1.500000000000e+00 1.350000000000e+01 0.000000000000e+00 1.875000000000e+06 1.013250000000e+05 
0.000000000000e+00 1.350000000000e+01 0.000000000000e+00 1.875000000000e+06 1.013250000000e+05 
1.500000000000e+00 1.425000000000e+01 0.000000000000e+00 1.875000000000e+06 1.013250000000e+05 
0.000000000000e+00 1.425000000000e+01 0.000000000000e+00 1.875000000000e+06 1.013250000000e+05 
1.500000000000e+00 1.500000000000e+01 0.000000000000e+00 1.875000000000e+06 1.013250000000e+05 
0.000000000000e+00 1.500000000000e+01 0.000000000000e+00 1.875000000000e+06 1.013250000000e+05 
1.500000000000e+00 1.575000000000e+01 0.000000000000e+00 1.875000000000e+06 1.013250000000e+05 
0.000000000000e+00 1.575000000000e+01 0.000000000000e+00 1.875000000000e+06 1.013250000000e+05 
1.500000000000e+00 1.650000000000e+01 0.000000000000e+00 1.875000000000e+06 1.013250000000e+05 
0.000000000000e+00 1.650000000000e+01 0.000000000000e+00 1.875000000000e+06 1.013250000000e+05 
1.500000000000e+00 1.725000000000e+01 0.000000000000e+00 1.875000000000e+06 1.013250000000e+05 
0.000000000000e+00 1.725000000000e+01 0.000000000000e+00 1.875000000000e+06 1.013250000000e+05 
1.500000000000e+00 1.800000000000e+01 0.000000000000e+00 1.875000000000e+06 1.013250000000e+05 
0.000000000000e+00 1.800000000000e+01 0.000000000000e+00 1.875000000000e+06 1.013250000000e+05 
1.500000000000e+00 1.875000000000e+01 0.000000000000e+00 1.875000000000e+06 1.013250000000e+05 
0.000000000000e+00 1.875000000000e+01 0.000000000000e+00 1.875000000000e+06 1.013250000000e+05 
1.500000000000e+00 1.950000000000e+01 0.000000000000e+00 1.875000000000e+06 1.013250000000e+05 
0.000000000000e+00 1.950000000000e+01 0.000000000000e+00 1.875000000000e+06 1.013250000000e+05 
1.500000000000e+00 2.025000000000e+01 0.000000000000e+00 1.875000000000e+06 1.013250000000e+05 
0.000000000000e+00 2.025000000000e+01 0.000000000000e+00 1.875000000000e+06 1.013250000000e+05 
1.500000000000e+00 2.100000000000e+01 0.000000000000e+00 1.875000000000e+06 1.013250000000e+05 
0.000000000000e+00 2.100000000000e+01 0.000000000000e+00 1.875000000000e+06 1.013250000000e+05 
1.500000000000e+00 2.175000000000e+01 0.000000000000e+00 1.875000000000e+06 1.013250000000e+05 
0.000000000000e+00 2.175000000000e+01 0.000000000000e+00 1.875000000000e+06 1.013250000000e+05 
1.500000000000e+00 2.250000000000e+01 0.000000000000e+00 1.875000000000e+06 1.013250000000e+05 
0.000000000000e+00 2.250000000000e+01 0.000000000000e+00 1.875000000000e+06 1.013250000000e+05 
1.500000000000e+00 2.325000000000e+01 0.000000000000e+00 1.875000000000e+06 1.013250000000e+05 
0.000000000000e+00 2.325000000000e+01 0.000000000000e+00 1.875000000000e+06 1.013250000000e+05 
1.500000000000e+00 2.400000000000e+01 0.000000000000e+00 1.875000000000e+06 1.013250000000e+05 
0.000000000000e+00 2.400000000000e+01 0.000000000000e+00 1.875000000000e+06 1.013250000000e+05 
1.500000000000e+00 2.475000000000e+01 0.000000000000e+00 1.875000000000e+06 1.013250000000e+05 
0.000000000000e+00 2.475000000000e+01 0.000000000000e+00 1.875000000000e+06 1.013250000000e+05 
1.500000000000e+00 2.550000000000e+01 0.000000000000e+00 1.875000000000e+06 1.013250000000e+05 
0.000000000000e+00 2.550000000000e+01 0.000000000000e+00 1.875000000000e+06 1.013250000000e+05 
1.500000000000e+00 2.625000000000e+01 0.000000000000e+00 1.875000000000e+06 1.013250000000e+05 
0.000000000000e+00 2.625000000000e+01 0.000000000000e+00 1.875000000000e+06 1.013250000000e+05 
1.500000000000e+00 2.700000000000e+01 0.000000000000e+00 1.875000000000e+06 1.013250000000e+05 
0.000000000000e+00 2.700000000000e+01 0.000000000000e+00 1.875000000000e+06 1.013250000000e+05 
1.500000000000e+00 2.775000000000e+01 0.000000000000e+00 1.875000000000e+06 1.013250000000e+05 
0.000000000000e+00 2.775000000000e+01 0.000000000000e+00 1.875000000000e+06 1.013250000000e+05 
1.500000000000e+00 2.850000000000e+01 0.000000000000e+00 1.875000000000e+06 1.013250000000e+05 
0.000000000000e+00 2.850000000000e+01 0.000000000000e+00 1.875000000000e+06 1.013250000000e+05 
1.500000000000e+00 2.925000000000e+01 0.000000000000e+00 1.875000000000e+06 1.013250000000e+05 
0.000000000000e+00 2.925000000000e+01 0.000000000000e+00 1.875000000000e+06 1.013250000000e+05 
1.500000000000e+00 3.000000000000e+01 0.000000000000e+00 1.875000000000e+06 1.013250000000e+05 
0.000000000000e+00 3.000000000000e+01 0.000000000000e+00 1.875000000000e+06 1.013250000000e+05 
3.000000000000e+00 0.000000000000e+00 0.000000000000e+00 1.875000000000e+06 1.013250000000e+05 
3.000000000000e+00 7.500000000000e-01 0.000000000000e+00 1.875000000000e+06 1.013250000000e+05 
3.000000000000e+00 1.500000000000e+00 0.000000000000e+00 1.875000000000e+06 1.013250000000e+05 
3.000000000000e+00 2.250000000000e+00 0.000000000000e+00 1.875000000000e+06 1.013250000000e+05 
3.000000000000e+00 3.000000000000e+00 0.000000000000e+00 1.875000000000e+06 1.013250000000e+05 
3.000000000000e+00 3.750000000000e+00 0.000000000000e+00 1.875000000000e+06 1.013250000000e+05 
3.000000000000e+00 4.500000000000e+00 0.000000000000e+00 1.875000000000e+06 1.013250000000e+05 
3.000000000000e+00 5.250000000000e+00 0.000000000000e+00 1.875000000000e+06 1.013250000000e+05 
3.000000000000e+00 6.000000000000e+00 0.000000000000e+00 1.875000000000e+06 1.013250000000e+05 
3.000000000000e+00 6.750000000000e+00 0.000000000000e+00 1.875000000000e+06 1.013250000000e+05 
3.000000000000e+00 7.500000000000e+00 0.000000000000e+00 1.875000000000e+06 1.013250000000e+05 
3.000000000000e+00 8.250000000000e+00 0.000000000000e+00 1.875000000000e+06 1.013250000000e+05 
3.000000000000e+00 9.000000000000e+00 0.000000000000e+00 1.875000000000e+06 1.013250000000e+05 
3.000000000000e+00 9.750000000000e+00 0.000000000000e+00 1.875000000000e+06 1.013250000000e+05 
3.000000000000e+00 1.050000000000e+01 0.000000000000e+00 1.875000000000e+06 1.013250000000e+05 
3.000000000000e+00 1.125000000000e+01 0.000000000000e+00 1.875000000000e+06 1.013250000000e+05 
3.000000000000e+00 1.200000000000e+01 0.000000000000e+00 1.875000000000e+06 1.013250000000e+05 
3.000000000000e+00 1.275000000000e+01 0.000000000000e+00 1.875000000000e+06 1.013250000000e+05 
3.000000000000e+00 1.350000000000e+01 0.000000000000e+00 1.875000000000e+06 1.013250000000e+05 
3.000000000000e+00 1.425000000000e+01 0.000000000000e+00 1.875000000000e+06 1.013250000000e+05 
3.000000000000e+00 1.500000000000e+01 0.000000000000e+00 1.875000000000e+06 1.013250000000e+05 
3.000000000000e+00 1.575000000000e+01 0.000000000000e+00 1.875000000000e+06 1.013250000000e+05 
3.000000000000e+00 1.650000000000e+01 0.000000000000e+00 1.875000000000e+06 1.013250000000e+05 
3.000000000000e+00 1.725000000000e+01 0.000000000000e+00 1.875000000000e+06 1.013250000000e+05 
3.000000000000e+00 1.800000000000e+01 0.000000000000e+00 1.875000000000e+06 1.013250000000e+05 
3.000000000000e+00 1.875000000000e+01 0.000000000000e+00 1.875000000000e+06 1.013250000000e+05 
3.000000000000e+00 1.950000000000e+01 0.000000000000e+00 1.875000000000e+06 1.013250000000e+05 
3.000000000000e+00 2.025000000000e+01 0.000000000000e+00 1.875000000000e+06 1.013250000000e+05 
3.000000000000e+00 2.100000000000e+01 0.000000000000e+00 1.875000000000e+06 1.013250000000e+05 
3.000000000000e+00 2.175000000000e+01 0.000000000000e+00 1.875000000000e+06 1.013250000000e+05 
3.000000000000e+00 2.250000000000e+01 0.000000000000e+00 1.875000000000e+06 1.013250000000e+05 
3.000000000000e+00 2.325000000000e+01 0.000000000000e+00 1.875000000000e+06 1.013250000000e+05 
3.000000000000e+00 2.400000000000e+01 0.000000000000e+00 1.875000000000e+06 1.013250000000e+05 
3.000000000000e+00 2.475000000000e+01 0.000000000000e+00 1.875000000000e+06 1.013250000000e+05 
3.000000000000e+00 2.550000000000e+01 0.000000000000e+00 1.875000000000e+06 1.013250000000e+05 
3.000000000000e+00 2.625000000000e+01 0.000000000000e+00 1.875000000000e+06 1.013250000000e+05 
3.000000000000e+00 2.700000000000e+01 0.000000000000e+00 1.875000000000e+06 1.013250000000e+05 
3.000000000000e+00 2.775000000000e+01 0.000000000000e+00 1.875000000000e+06 1.013250000000e+05 
3.000000000000e+00 2.850000000000e+01 0.000000000000e+00 1.875000000000e+06 1.013250000000e+05 
3.000000000000e+00 2.925000000000e+01 0.000000000000e+00 1.875000000000e+06 1.013250000000e+05 
3.000000000000e+00 3.000000000000e+01 0.000000000000e+00 1.875000000000e+06 1.013250000000e+05 
4.500000000000e+00 0.000000000000e+00 0.000000000000e+00 1.875000000000e+06 1.013250000000e+05 
4.500000000000e+00 7.500000000000e-01 0.000000000000e+00 1.875000000000e+06 1.013250000000e+05 
4.500000000000e+00 1.500000000000e+00 0.000000000000e+00 1.875000000000e+06 1.013250000000e+05 
4.500000000000e+00 2.250000000000e+00 0.000000000000e+00 1.875000000000e+06 1.013250000000e+05 
4.500000000000e+00 3.000000000000e+00 0.000000000000e+00 1.875000000000e+06 1.013250000000e+05 
4.500000000000e+00 3.750000000000e+00 0.000000000000e+00 1.875000000000e+06 1.013250000000e+05 
4.500000000000e+00 4.500000000000e+00 0.000000000000e+00 1.875000000000e+06 1.013250000000e+05 
4.500000000000e+00 5.250000000000e+00 0.000000000000e+00 1.875000000000e+06 1.013250000000e+05 
4.500000000000e+00 6.000000000000e+00 0.000000000000e+00 1.875000000000e+06 1.013250000000e+05 
4.500000000000e+00 6.750000000000e+00 0.000000000000e+00 1.875000000000e+06 1.013250000000e+05 
4.500000000000e+00 7.500000000000e+00 0.000000000000e+00 1.875000000000e+06 1.013250000000e+05 
4.500000000000e+00 8.250000000000e+00 0.000000000000e+00 1.875000000000e+06 1.013250000000e+05 
4.500000000000e+00 9.000000000000e+00 0.000000000000e+00 1.875000000000e+06 1.013250000000e+05 
4.500000000000e+00 9.750000000000e+00 0.000000000000e+00 1.875000000000e+06 1.013250000000e+05 
4.500000000000e+00 1.050000000000e+01 0.000000000000e+00 1.875000000000e+06 1.013250000000e+05 
4.500000000000e+00 1.125000000000e+01 0.000000000000e+00 1.875000000000e+06 1.013250000000e+05 
4.500000000000e+00 1.200000000000e+01 0.000000000000e+00 1.875000000000e+06 1.013250000000e+05 
4.500000000000e+00 1.275000000000e+01 0.000000000000e+00 1.875000000000e+06 1.013250000000e+05 
4.500000000000e+00 1.350000000000e+01 0.000000000000e+00 1.875000000000e+06 1.013250000000e+05 
4.500000000000e+00 1.425000000000e+01 0.000000000000e+00 1.875000000000e+06 1.013250000000e+05 
4.500000000000e+00 1.500000000000e+01 0.000000000000e+00 1.875000000000e+06 1.013250000000e+05 
4.500000000000e+00 1.575000000000e+01 0.000000000000e+00 1.875000000000e+06 1.013250000000e+05 
4.500000000000e+00 1.650000000000e+01 0.000000000000e+00 1.875000000000e+06 1.013250000000e+05 
4.500000000000e+00 1.725000000000e+01 0.000000000000e+00 1.875000000000e+06 1.013250000000e+05 
4.500000000000e+00 1.800000000000e+01 0.000000000000e+00 1.875000000000e+06 1.013250000000e+05 
4.500000000000e+00 1.875000000000e+01 0.000000000000e+00 1.875000000000e+06 1.013250000000e+05 
4.500000000000e+00 1.950000000000e+01 0.000000000000e+00 1.875000000000e+06 1.013250000000e+05 
4.500000000000e+00 2.025000000000e+01 0.000000000000e+00 1.875000000000e+06 1.013250000000e+05 
4.500000000000e+00 2.100000000000e+01 0.000000000000e+00 1.875000000000e+06 1.013250000000e+05 
4.500000000000e+00 2.175000000000e+01 0.000000000000e+00 1.875000000000e+06 1.013250000000e+05 
4.500000000000e+00 2.250000000000e+01 0.000000000000e+00 1.875000000000e+06 1.013250000000e+05 
4.500000000000e+00 2.325000000000e+01 0.000000000000e+00 1.875000000000e+06 1.013250000000e+05 
4.500000000000e+00 2.400000000000e+01 0.000000000000e+00 1.875000000000e+06 1.013250000000e+05 
4.500000000000e+00 2.475000000000e+01 0.000000000000e+00 1.875000000000e+06 1.013250000000e+05 
4.500000000000e+00 2.550000000000e+01 0.000000000000e+00 1.875000000000e+06 1.013250000000e+05 
4.500000000000e+00 2.625000000000e+01 0.000000000000e+00 1.875000000000e+06 1.013250000000e+05 
4.500000000000e+00 2.700000000000e+01 0.000000000000e+00 1.875000000000e+06 1.013250000000e+05 
4.500000000000e+00 2.775000000000e+01 0.000000000000e+00 1.875000000000e+06 1.013250000000e+05 
4.500000000000e+00 2.850000000000e+01 0.000000000000e+00 1.875000000000e+06 1.013250000000e+05 
4.500000000000e+00 2.925000000000e+01 0.000000000000e+00 1.875000000000e+06 1.013250000000e+05 
4.500000000000e+00 3.000000000000e+01 0.000000000000e+00 1.875000000000e+06 1.013250000000e+05 
6.000000000000e+00 0.000000000000e+00 0.000000000000e+00 1.875000000000e+06 1.013250000000e+05 
6.000000000000e+00 7.500000000000e-01 0.000000000000e+00 1.875000000000e+06 1.013250000000e+05 
6.000000000000e+00 1.500000000000e+00 0.000000000000e+00 1.875000000000e+06 1.013250000000e+05 
6.000000000000e+00 2.250000000000e+00 0.000000000000e+00 1.875000000000e+06 1.013250000000e+05 
6.000000000000e+00 3.000000000000e+00 0.000000000000e+00 1.875000000000e+06 1.013250000000e+05 
6.000000000000e+00 3.750000000000e+00 0.000000000000e+00 1.875000000000e+06 1.013250000000e+05 
6.000000000000e+00 4.500000000000e+00 0.000000000000e+00 1.875000000000e+06 1.013250000000e+05 
6.000000000000e+00 5.250000000000e+00 0.000000000000e+00 1.875000000000e+06 1.013250000000e+05 
6.000000000000e+00 6.000000000000e+00 0.000000000000e+00 1.875000000000e+06 1.013250000000e+05 
6.000000000000e+00 6.750000000000e+00 0.000000000000e+00 1.875000000000e+06 1.013250000000e+05 
6.000000000000e+00 7.500000000000e+00 0.000000000000e+00 1.875000000000e+06 1.013250000000e+05 
6.000000000000e+00 8.250000000000e+00 0.000000000000e+00 1.875000000000e+06 1.013250000000e+05 
6.000000000000e+00 9.000000000000e+00 0.000000000000e+00 1.875000000000e+06 1.013250000000e+05 
6.000000000000e+00 9.750000000000e+00 0.000000000000e+00 1.875000000000e+06 1.013250000000e+05 
6.000000000000e+00 1.050000000000e+01 0.000000000000e+00 1.875000000000e+06 1.013250000000e+05 
6.000000000000e+00 1.125000000000e+01 0.000000000000e+00 1.875000000000e+06 1.013250000000e+05 
6.000000000000e+00 1.200000000000e+01 0.000000000000e+00 1.875000000000e+06 1.013250000000e+05 
6.000000000000e+00 1.275000000000e+01 0.000000000000e+00 1.875000000000e+06 1.013250000000e+05 
6.000000000000e+00 1.350000000000e+01 0.000000000000e+00 1.875000000000e+06 1.013250000000e+05 
6.000000000000e+00 1.425000000000e+01 0.000000000000e+00 1.875000000000e+06 1.013250000000e+05 
6.000000000000e+00 1.500000000000e+01 0.000000000000e+00 1.875000000000e+06 1.013250000000e+05 
6.000000000000e+00 1.575000000000e+01 0.000000000000e+00 1.875000000000e+06 1.013250000000e+05 
6.000000000000e+00 1.650000000000e+01 0.000000000000e+00 1.875000000000e+06 1.013250000000e+05 
6.000000000000e+00 1.725000000000e+01 0.000000000000e+00 1.875000000000e+06 1.013250000000e+05 
6.000000000000e+00 1.800000000000e+01 0.000000000000e+00 1.875000000000e+06 1.013250000000e+05 
6.000000000000e+00 1.875000000000e+01 0.000000000000e+00 1.875000000000e+06 1.013250000000e+05 
6.000000000000e+00 1.950000000000e+01 0.000000000000e+00 1.875000000000e+06 1.013250000000e+05 
6.000000000000e+00 2.025000000000e+01 0.000000000000e+00 1.875000000000e+06 1.013250000000e+05 
6.000000000000e+00 2.100000000000e+01 0.000000000000e+00 1.875000000000e+06 1.013250000000e+05 
6.000000000000e+00 2.175000000000e+01 0.000000000000e+00 1.875000000000e+06 1.013250000000e+05 
6.000000000000e+00 2.250000000000e+01 0.000000000000e+00 1.875000000000e+06 1.013250000000e+05 
6.000000000000e+00 2.325000000000e+01 0.000000000000e+00 1.875000000000e+06 1.013250000000e+05 
6.000000000000e+00 2.400000000000e+01 0.000000000000e+00 1.875000000000e+06 1.013250000000e+05 
6.000000000000e+00 2.475000000000e+01 0.000000000000e+00 1.875000000000e+06 1.013250000000e+05 
6.000000000000e+00 2.550000000000e+01 0.000000000000e+00 1.875000000000e+06 1.013250000000e+05 
6.000000000000e+00 2.625000000000e+01 0.000000000000e+00 1.875000000000e+06 1.013250000000e+05 
6.000000000000e+00 2.700000000000e+01 0.000000000000e+00 1.875000000000e+06 1.013250000000e+05 
6.000000000000e+00 2.775000000000e+01 0.000000000000e+00 1.875000000000e+06 1.013250000000e+05 
6.000000000000e+00 2.850000000000e+01 0.000000000000e+00 1.875000000000e+06 1.013250000000e+05 
6.000000000000e+00 2.925000000000e+01 0.000000000000e+00 1.875000000000e+06 1.013250000000e+05 
6.000000000000e+00 3.000000000000e+01 0.000000000000e+00 1.875000000000e+06 1.013250000000e+05 
7.500000000000e+00 0.000000000000e+00 0.000000000000e+00 1.875000000000e+06 1.013250000000e+05 
7.500000000000e+00 7.500000000000e-01 0.000000000000e+00 1.875000000000e+06 1.013250000000e+05 
7.500000000000e+00 1.500000000000e+00 0.000000000000e+00 1.875000000000e+06 1.013250000000e+05 
7.500000000000e+00 2.250000000000e+00 0.000000000000e+00 1.875000000000e+06 1.013250000000e+05 
7.500000000000e+00 3.000000000000e+00 0.000000000000e+00 1.875000000000e+06 1.013250000000e+05 
7.500000000000e+00 3.750000000000e+00 0.000000000000e+00 1.875000000000e+06 1.013250000000e+05 
7.500000000000e+00 4.500000000000e+00 0.000000000000e+00 1.875000000000e+06 1.013250000000e+05 
7.500000000000e+00 5.250000000000e+00 0.000000000000e+00 1.875000000000e+06 1.013250000000e+05 
7.500000000000e+00 6.000000000000e+00 0.000000000000e+00 1.875000000000e+06 1.013250000000e+05 
7.500000000000e+00 6.750000000000e+00 0.000000000000e+00 1.875000000000e+06 1.013250000000e+05 
7.500000000000e+00 7.500000000000e+00 0.000000000000e+00 1.875000000000e+06 1.013250000000e+05 
7.500000000000e+00 8.250000000000e+00 0.000000000000e+00 1.875000000000e+06 1.013250000000e+05 
7.500000000000e+00 9.000000000000e+00 0.000000000000e+00 1.875000000000e+06 1.013250000000e+05 
7.500000000000e+00 9.750000000000e+00 0.000000000000e+00 1.875000000000e+06 1.013250000000e+05 
7.500000000000e+00 1.050000000000e+01 0.000000000000e+00 1.875000000000e+06 1.013250000000e+05 
7.500000000000e+00 1.125000000000e+01 0.000000000000e+00 1.875000000000e+06 1.013250000000e+05 
7.500000000000e+00 1.200000000000e+01 0.000000000000e+00 1.875000000000e+06 1.013250000000e+05 
7.500000000000e+00 1.275000000000e+01 0.000000000000e+00 1.875000000000e+06 1.013250000000e+05 
7.500000000000e+00 1.350000000000e+01 0.000000000000e+00 1.875000000000e+06 1.013250000000e+05 
7.500000000000e+00 1.425000000000e+01 0.000000000000e+00 1.875000000000e+06 1.013250000000e+05 
7.500000000000e+00 1.500000000000e+01 0.000000000000e+00 1.875000000000e+06 1.013250000000e+05 
7.500000000000e+00 1.575000000000e+01 0.000000000000e+00 1.875000000000e+06 1.013250000000e+05 
7.500000000000e+00 1.650000000000e+01 0.000000000000e+00 1.875000000000e+06 1.013250000000e+05 
7.500000000000e+00 1.725000000000e+01 0.000000000000e+00 1.875000000000e+06 1.013250000000e+05 
7.500000000000e+00 1.800000000000e+01 0.000000000000e+00 1.875000000000e+06 1.013250000000e+05 
7.500000000000e+00 1.875000000000e+01 0.000000000000e+00 1.875000000000e+06 1.013250000000e+05 
7.500000000000e+00 1.950000000000e+01 0.000000000000e+00 1.875000000000e+06 1.013250000000e+05 
7.500000000000e+00 2.025000000000e+01 0.000000000000e+00 1.875000000000e+06 1.013250000000e+05 
7.500000000000e+00 2.100000000000e+01 0.000000000000e+00 1.875000000000e+06 1.013250000000e+05 
7.500000000000e+00 2.175000000000e+01 0.000000000000e+00 1.875000000000e+06 1.013250000000e+05 
7.500000000000e+00 2.250000000000e+01 0.000000000000e+00 1.875000000000e+06 1.013250000000e+05 
7.500000000000e+00 2.325000000000e+01 0.000000000000e+00 1.875000000000e+06 1.013250000000e+05 
7.500000000000e+00 2.400000000000e+01 0.000000000000e+00 1.875000000000e+06 1.013250000000e+05 
7.500000000000e+00 2.475000000000e+01 0.000000000000e+00 1.875000000000e+06 1.013250000000e+05 
7.500000000000e+00 2.550000000000e+01 0.000000000000e+00 1.875000000000e+06 1.013250000000e+05 
7.500000000000e+00 2.625000000000e+01 0.000000000000e+00 1.875000000000e+06 1.013250000000e+05 
7.500000000000e+00 2.700000000000e+01 0.000000000000e+00 1.875000000000e+06 1.013250000000e+05 
7.500000000000e+00 2.775000000000e+01 0.000000000000e+00 1.875000000000e+06 1.013250000000e+05 
7.500000000000e+00 2.850000000000e+01 0.000000000000e+00 1.875000000000e+06 1.013250000000e+05 
7.500000000000e+00 2.925000000000e+01 0.000000000000e+00 1.875000000000e+06 1.013250000000e+05 
7.500000000000e+00 3.000000000000e+01 0.000000000000e+00 1.875000000000e+06 1.013250000000e+05 
9.000000000000e+00 0.000000000000e+00 0.000000000000e+00 1.875000000000e+06 1.013250000000e+05 
9.000000000000e+00 7.500000000000e-01 0.000000000000e+00 1.875000000000e+06 1.013250000000e+05 
9.000000000000e+00 1.500000000000e+00 0.000000000000e+00 1.875000000000e+06 1.013250000000e+05 
9.000000000000e+00 2.250000000000e+00 0.000000000000e+00 1.875000000000e+06 1.013250000000e+05 
9.000000000000e+00 3.000000000000e+00 0.000000000000e+00 1.875000000000e+06 1.013250000000e+05 
9.000000000000e+00 3.750000000000e+00 0.000000000000e+00 1.875000000000e+06 1.013250000000e+05 
9.000000000000e+00 4.500000000000e+00 0.000000000000e+00 1.875000000000e+06 1.013250000000e+05 
9.000000000000e+00 5.250000000000e+00 0.000000000000e+00 1.875000000000e+06 1.013250000000e+05 
9.000000000000e+00 6.000000000000e+00 0.000000000000e+00 1.875000000000e+06 1.013250000000e+05 
9.000000000000e+00 6.750000000000e+00 0.000000000000e+00 1.875000000000e+06 1.013250000000e+05 
9.000000000000e+00 7.500000000000e+00 0.000000000000e+00 1.875000000000e+06 1.013250000000e+05 
9.000000000000e+00 8.250000000000e+00 0.000000000000e+00 1.875000000000e+06 1.013250000000e+05 
9.000000000000e+00 9.000000000000e+00 0.000000000000e+00 1.875000000000e+06 1.013250000000e+05 
9.000000000000e+00 9.750000000000e+00 0.000000000000e+00 1.875000000000e+06 1.013250000000e+05 
9.000000000000e+00 1.050000000000e+01 0.000000000000e+00 1.875000000000e+06 1.013250000000e+05 
9.000000000000e+00 1.125000000000e+01 0.000000000000e+00 1.875000000000e+06 1.013250000000e+05 
9.000000000000e+00 1.200000000000e+01 0.000000000000e+00 1.875000000000e+06 1.013250000000e+05 
9.000000000000e+00 1.275000000000e+01 0.000000000000e+00 1.875000000000e+06 1.013250000000e+05 
9.000000000000e+00 1.350000000000e+01 0.000000000000e+00 1.875000000000e+06 1.013250000000e+05 
9.000000000000e+00 1.425000000000e+01 0.000000000000e+00 1.875000000000e+06 1.013250000000e+05 
9.000000000000e+00 1.500000000000e+01 0.000000000000e+00 1.875000000000e+06 1.013250000000e+05 
9.000000000000e+00 1.575000000000e+01 0.000000000000e+00 1.875000000000e+06 1.013250000000e+05 
9.000000000000e+00 1.650000000000e+01 0.000000000000e+00 1.875000000000e+06 1.013250000000e+05 
9.000000000000e+00 1.725000000000e+01 0.000000000000e+00 1.875000000000e+06 1.013250000000e+05 
9.000000000000e+00 1.800000000000e+01 0.000000000000e+00 1.875000000000e+06 1.013250000000e+05 
9.000000000000e+00 1.875000000000e+01 0.000000000000e+00 1.875000000000e+06 1.013250000000e+05 
9.000000000000e+00 1.950000000000e+01 0.000000000000e+00 1.875000000000e+06 1.013250000000e+05 
9.000000000000e+00 2.025000000000e+01 0.000000000000e+00 1.875000000000e+06 1.013250000000e+05 
9.000000000000e+00 2.100000000000e+01 0.000000000000e+00 1.875000000000e+06 1.013250000000e+05 
9.000000000000e+00 2.175000000000e+01 0.000000000000e+00 1.875000000000e+06 1.013250000000e+05 
9.000000000000e+00 2.250000000000e+01 0.000000000000e+00 1.875000000000e+06 1.013250000000e+05 
9.000000000000e+00 2.325000000000e+01 0.000000000000e+00 1.875000000000e+06 1.013250000000e+05 
9.000000000000e+00 2.400000000000e+01 0.000000000000e+00 1.875000000000e+06 1.013250000000e+05 
9.000000000000e+00 2.475000000000e+01 0.000000000000e+00 1.875000000000e+06 1.013250000000e+05 
9.000000000000e+00 2.550000000000e+01 0.000000000000e+00 1.875000000000e+06 1.013250000000e+05 
9.000000000000e+00 2.625000000000e+01 0.000000000000e+00 1.875000000000e+06 1.013250000000e+05 
9.000000000000e+00 2.700000000000e+01 0.000000000000e+00 1.875000000000e+06 1.013250000000e+05 
9.000000000000e+00 2.775000000000e+01 0.000000000000e+00 1.875000000000e+06 1.013250000000e+05 
9.000000000000e+00 2.850000000000e+01 0.000000000000e+00 1.875000000000e+06 1.013250000000e+05 
9.000000000000e+00 2.925000000000e+01 0.000000000000e+00 1.875000000000e+06 1.013250000000e+05 
9.000000000000e+00 3.000000000000e+01 0.000000000000e+00 1.875000000000e+06 1.013250000000e+05 
1.050000000000e+01 0.000000000000e+00 0.000000000000e+00 1.875000000000e+06 1.013250000000e+05 
1.050000000000e+01 7.500000000000e-01 0.000000000000e+00 1.875000000000e+06 1.013250000000e+05 
1.050000000000e+01 1.500000000000e+00 0.000000000000e+00 1.875000000000e+06 1.013250000000e+05 
1.050000000000e+01 2.250000000000e+00 0.000000000000e+00 1.875000000000e+06 1.013250000000e+05 
1.050000000000e+01 3.000000000000e+00 0.000000000000e+00 1.875000000000e+06 1.013250000000e+05 
1.050000000000e+01 3.750000000000e+00 0.000000000000e+00 1.875000000000e+06 1.013250000000e+05 
1.050000000000e+01 4.500000000000e+00 0.000000000000e+00 1.875000000000e+06 1.013250000000e+05 
1.050000000000e+01 5.250000000000e+00 0.000000000000e+00 1.875000000000e+06 1.013250000000e+05 
1.050000000000e+01 6.000000000000e+00 0.000000000000e+00 1.875000000000e+06 1.013250000000e+05 
1.050000000000e+01 6.750000000000e+00 0.000000000000e+00 1.875000000000e+06 1.013250000000e+05 
1.050000000000e+01 7.500000000000e+00 0.000000000000e+00 1.875000000000e+06 1.013250000000e+05 
1.050000000000e+01 8.250000000000e+00 0.000000000000e+00 1.875000000000e+06 1.013250000000e+05 
1.050000000000e+01 9.000000000000e+00 0.000000000000e+00 1.875000000000e+06 1.013250000000e+05 
1.050000000000e+01 9.750000000000e+00 0.000000000000e+00 1.875000000000e+06 1.013250000000e+05 
1.050000000000e+01 1.050000000000e+01 0.000000000000e+00 1.875000000000e+06 1.013250000000e+05 
1.050000000000e+01 1.125000000000e+01 0.000000000000e+00 1.875000000000e+06 1.013250000000e+05 
1.050000000000e+01 1.200000000000e+01 0.000000000000e+00 1.875000000000e+06 1.013250000000e+05 
1.050000000000e+01 1.275000000000e+01 0.000000000000e+00 1.875000000000e+06 1.013250000000e+05 
1.050000000000e+01 1.350000000000e+01 0.000000000000e+00 1.875000000000e+06 1.013250000000e+05 
1.050000000000e+01 1.425000000000e+01 0.000000000000e+00 1.875000000000e+06 1.013250000000e+05 
1.050000000000e+01 1.500000000000e+01 0.000000000000e+00 1.875000000000e+06 1.013250000000e+05 
1.050000000000e+01 1.575000000000e+01 0.000000000000e+00 1.875000000000e+06 1.013250000000e+05 
1.050000000000e+01 1.650000000000e+01 0.000000000000e+00 1.875000000000e+06 1.013250000000e+05 