 TITLE = "Profiles along polylines"
 VARIABLES = "DIST" "VELOCITY_X2" "VELOCITY_Y2" 
 ZONE T="TIME=0.000000000000e+00"
0.000000000000e+00 0.000000000000e+00 0.000000000000e+00 
7.500000000000e-01 0.000000000000e+00 0.000000000000e+00 
1.500000000000e+00 0.000000000000e+00 0.000000000000e+00 
2.250000000000e+00 0.000000000000e+00 0.000000000000e+00 
3.000000000000e+00 0.000000000000e+00 0.000000000000e+00 
3.750000000000e+00 0.000000000000e+00 0.000000000000e+00 
4.500000000000e+00 0.000000000000e+00 0.000000000000e+00 
5.250000000000e+00 0.000000000000e+00 0.000000000000e+00 
6.000000000000e+00 0.000000000000e+00 0.000000000000e+00 
6.750000000000e+00 0.000000000000e+00 0.000000000000e+00 
7.500000000000e+00 0.000000000000e+00 0.000000000000e+00 
8.250000000000e+00 0.000000000000e+00 0.000000000000e+00 
9.000000000000e+00 0.000000000000e+00 0.000000000000e+00 
9.750000000000e+00 0.000000000000e+00 0.000000000000e+00 
1.050000000000e+01 0.000000000000e+00 0.000000000000e+00 
1.125000000000e+01 0.000000000000e+00 0.000000000000e+00 
1.200000000000e+01 0.000000000000e+00 0.000000000000e+00 
1.275000000000e+01 0.000000000000e+00 0.000000000000e+00 
1.350000000000e+01 0.000000000000e+00 0.000000000000e+00 
1.425000000000e+01 0.000000000000e+00 0.000000000000e+00 
1.500000000000e+01 0.000000000000e+00 0.000000000000e+00 
1.575000000000e+01 0.000000000000e+00 0.000000000000e+00 
1.650000000000e+01 0.000000000000e+00 0.000000000000e+00 
1.725000000000e+01 0.000000000000e+00 0.000000000000e+00 
1.800000000000e+01 0.000000000000e+00 0.000000000000e+00 
 TITLE = "Profiles along polylines"
 VARIABLES = "DIST" "VELOCITY_X2" "VELOCITY_Y2" 
 ZONE T="TIME=5.000000000000e+01"
0.000000000000e+00 -2.706085973923e-11 -3.087427834460e-16 
7.500000000000e-01 -2.545575950749e-11 -9.172190784258e-17 
1.500000000000e+00 -2.542885501336e-11 5.010479213123e-16 
2.250000000000e+00 -2.844882290122e-11 8.582563709759e-16 
3.000000000000e+00 -2.968272651960e-11 7.333753943838e-16 
3.750000000000e+00 -2.940010245810e-11 6.558475198454e-16 
4.500000000000e+00 -3.070464582666e-11 1.208451504483e-15 
5.250000000000e+00 -3.492878736978e-11 2.405080234338e-15 
6.000000000000e+00 -4.316755188128e-11 2.364323139006e-15 
6.750000000000e+00 -4.839579623951e-11 -1.290618968671e-16 
7.500000000000e+00 -4.320234148603e-11 -1.798751807891e-15 
8.250000000000e+00 -3.611545620757e-11 -8.120282443205e-16 
9.000000000000e+00 -3.179842276822e-11 4.204910415167e-16 
9.750000000000e+00 -2.672105796197e-11 1.135249160311e-15 
1.050000000000e+01 -2.075428256079e-11 1.497832846897e-15 
1.125000000000e+01 -1.601822205226e-11 9.282433945085e-16 
1.200000000000e+01 -1.458024133499e-11 1.033754924115e-15 
1.275000000000e+01 -1.638251740622e-11 3.091319588827e-15 
1.350000000000e+01 -2.152376385452e-11 3.576168561029e-15 
1.425000000000e+01 -2.768316556549e-11 7.105796570090e-16 
1.500000000000e+01 -3.035073295088e-11 -1.679170189052e-15 
1.575000000000e+01 -2.628614540635e-11 -1.522960654322e-15 
1.650000000000e+01 -1.846311587575e-11 -1.257956709464e-15 
1.725000000000e+01 -1.337538883572e-11 -1.287388853181e-14 
1.800000000000e+01 -1.007280820285e-11 2.548711355049e-10 
