 TITLE = "Profiles along polylines"
 VARIABLES = "DIST" "VELOCITY_X2" "VELOCITY_Y2" 
 ZONE T="TIME=0.000000000000e+00"
0.000000000000e+00 0.000000000000e+00 0.000000000000e+00 
7.500000000000e-01 0.000000000000e+00 0.000000000000e+00 
1.500000000000e+00 0.000000000000e+00 0.000000000000e+00 
2.250000000000e+00 0.000000000000e+00 0.000000000000e+00 
3.000000000000e+00 0.000000000000e+00 0.000000000000e+00 
3.750000000000e+00 0.000000000000e+00 0.000000000000e+00 
4.500000000000e+00 0.000000000000e+00 0.000000000000e+00 
5.250000000000e+00 0.000000000000e+00 0.000000000000e+00 
6.000000000000e+00 0.000000000000e+00 0.000000000000e+00 
6.750000000000e+00 0.000000000000e+00 0.000000000000e+00 
7.500000000000e+00 0.000000000000e+00 0.000000000000e+00 
8.250000000000e+00 0.000000000000e+00 0.000000000000e+00 
9.000000000000e+00 0.000000000000e+00 0.000000000000e+00 
9.750000000000e+00 0.000000000000e+00 0.000000000000e+00 
1.050000000000e+01 0.000000000000e+00 0.000000000000e+00 
1.125000000000e+01 0.000000000000e+00 0.000000000000e+00 
1.200000000000e+01 0.000000000000e+00 0.000000000000e+00 
1.275000000000e+01 0.000000000000e+00 0.000000000000e+00 
1.350000000000e+01 0.000000000000e+00 0.000000000000e+00 
1.425000000000e+01 0.000000000000e+00 0.000000000000e+00 
1.500000000000e+01 0.000000000000e+00 0.000000000000e+00 
1.575000000000e+01 0.000000000000e+00 0.000000000000e+00 
1.650000000000e+01 0.000000000000e+00 0.000000000000e+00 
1.725000000000e+01 0.000000000000e+00 0.000000000000e+00 
1.800000000000e+01 0.000000000000e+00 0.000000000000e+00 
 TITLE = "Profiles along polylines"
 VARIABLES = "DIST" "VELOCITY_X2" "VELOCITY_Y2" 
 ZONE T="TIME=5.000000000000e+01"
0.000000000000e+00 -1.440242300969e-11 -3.949816672686e-17 
7.500000000000e-01 -1.469715349844e-11 -5.394066972540e-17 
1.500000000000e+00 -1.365997921477e-11 -2.013057460519e-16 
2.250000000000e+00 -1.039099805509e-11 -3.538861362869e-16 
3.000000000000e+00 -7.985869835991e-12 -2.389209601630e-16 
3.750000000000e+00 -7.077414933995e-12 3.335516914460e-17 
4.500000000000e+00 -6.861689902113e-12 3.417912938007e-16 
5.250000000000e+00 -8.377126874957e-12 4.667982612465e-16 
6.000000000000e+00 -9.604364672527e-12 9.890705757562e-17 
6.750000000000e+00 -8.140925215927e-12 -2.672158115224e-16 
7.500000000000e+00 -6.953253655915e-12 -2.371685887744e-16 
8.250000000000e+00 -7.373273360348e-12 -1.647911417352e-16 
9.000000000000e+00 -6.391128227533e-12 -3.310521334725e-17 
9.750000000000e+00 -4.783955499152e-12 2.400430671059e-16 
1.050000000000e+01 -4.296472109686e-12 2.840742130509e-16 
1.125000000000e+01 -3.455258585013e-12 9.087052569037e-17 
1.200000000000e+01 -2.046750644156e-12 2.746238374581e-16 
1.275000000000e+01 -4.792759631313e-13 1.180544946975e-15 
1.350000000000e+01 1.354991531520e-12 1.670196240113e-15 
1.425000000000e+01 2.066722707744e-12 6.423185375320e-16 
1.500000000000e+01 7.318140445725e-13 -4.299860170220e-16 
1.575000000000e+01 -1.488952149054e-12 -1.159331765173e-16 
1.650000000000e+01 -3.842288786483e-12 7.901278841700e-16 
1.725000000000e+01 -6.043755649860e-12 -4.754518007577e-15 
1.800000000000e+01 -6.950610674954e-12 1.882942664537e-10 
