 TITLE = "Profiles along polylines"
 VARIABLES = "DIST" "VELOCITY_X2" "VELOCITY_Y2" 
 ZONE T="TIME=0.000000000000e+00"
0.000000000000e+00 0.000000000000e+00 0.000000000000e+00 
7.500000000000e-01 0.000000000000e+00 0.000000000000e+00 
1.500000000000e+00 0.000000000000e+00 0.000000000000e+00 
2.250000000000e+00 0.000000000000e+00 0.000000000000e+00 
3.000000000000e+00 0.000000000000e+00 0.000000000000e+00 
3.750000000000e+00 0.000000000000e+00 0.000000000000e+00 
4.500000000000e+00 0.000000000000e+00 0.000000000000e+00 
5.250000000000e+00 0.000000000000e+00 0.000000000000e+00 
6.000000000000e+00 0.000000000000e+00 0.000000000000e+00 
6.750000000000e+00 0.000000000000e+00 0.000000000000e+00 
7.500000000000e+00 0.000000000000e+00 0.000000000000e+00 
8.250000000000e+00 0.000000000000e+00 0.000000000000e+00 
9.000000000000e+00 0.000000000000e+00 0.000000000000e+00 
9.750000000000e+00 0.000000000000e+00 0.000000000000e+00 
1.050000000000e+01 0.000000000000e+00 0.000000000000e+00 
1.125000000000e+01 0.000000000000e+00 0.000000000000e+00 
1.200000000000e+01 0.000000000000e+00 0.000000000000e+00 
1.275000000000e+01 0.000000000000e+00 0.000000000000e+00 
1.350000000000e+01 0.000000000000e+00 0.000000000000e+00 
1.425000000000e+01 0.000000000000e+00 0.000000000000e+00 
1.500000000000e+01 0.000000000000e+00 0.000000000000e+00 
1.575000000000e+01 0.000000000000e+00 0.000000000000e+00 
1.650000000000e+01 0.000000000000e+00 0.000000000000e+00 
1.725000000000e+01 0.000000000000e+00 0.000000000000e+00 
1.800000000000e+01 0.000000000000e+00 0.000000000000e+00 
 TITLE = "Profiles along polylines"
 VARIABLES = "DIST" "VELOCITY_X2" "VELOCITY_Y2" 
 ZONE T="TIME=5.000000000000e+01"
0.000000000000e+00 8.678118029198e-12 -3.571973494769e-16 
7.500000000000e-01 8.301931508325e-12 -2.440420151083e-16 
1.500000000000e+00 9.605709786336e-12 -4.920652367717e-17 
2.250000000000e+00 1.179798133600e-11 -6.866586834228e-17 
3.000000000000e+00 1.135128077108e-11 1.452322593972e-16 
3.750000000000e+00 1.039274200164e-11 8.193372655322e-16 
4.500000000000e+00 1.012050764018e-11 1.247946096045e-15 
5.250000000000e+00 9.184092237600e-12 1.263395181374e-15 
6.000000000000e+00 6.411892509415e-12 9.190267713220e-16 
6.750000000000e+00 1.962993148140e-12 1.799210223699e-17 
7.500000000000e+00 -1.296562249849e-12 -6.059778343585e-16 
8.250000000000e+00 -1.363201984654e-12 -2.718759955354e-16 
9.000000000000e+00 -1.263663494782e-14 1.232874703646e-16 
9.750000000000e+00 -1.321147896949e-12 2.038326863344e-16 
1.050000000000e+01 -5.507192576073e-12 1.876154831883e-16 
1.125000000000e+01 -9.589905849680e-12 1.770585232089e-16 
1.200000000000e+01 -1.108537824517e-11 1.445081551582e-15 
1.275000000000e+01 -1.304264547411e-11 4.328160101358e-15 
1.350000000000e+01 -1.543988621930e-11 5.034640292891e-15 
1.425000000000e+01 -1.347687167287e-11 1.865443616788e-15 
1.500000000000e+01 -9.125637742182e-12 -1.677051322092e-15 
1.575000000000e+01 -3.941726739757e-12 -1.724134511970e-15 
1.650000000000e+01 -1.165067738890e-12 3.438293650922e-16 
1.725000000000e+01 -3.772631913958e-12 -1.261472917740e-14 
1.800000000000e+01 -1.151395102231e-11 2.872745103996e-10 
