VARIABLES  = "X","Y","Z", "PRESSURE2"
ZONE T="0.000000000000e+000s", N=961, E=900, F=FEPOINT, ET=QUADRILATERAL
STRANDID=1, SOLUTIONTIME=0.000000000000e+000
0.000000000000e+000 0.000000000000e+000 0.000000000000e+000 1.013250000000e+005 
1.000000000000e+000 0.000000000000e+000 0.000000000000e+000 1.013250000000e+005 
1.000000000000e+000 0.000000000000e+000 1.000000000000e+000 1.013250000000e+005 
0.000000000000e+000 0.000000000000e+000 1.000000000000e+000 1.013250000000e+005 
1.000000000000e+000 0.000000000000e+000 2.000000000000e+000 1.013250000000e+005 
0.000000000000e+000 0.000000000000e+000 2.000000000000e+000 1.013250000000e+005 
1.000000000000e+000 0.000000000000e+000 3.000000000000e+000 1.013250000000e+005 
0.000000000000e+000 0.000000000000e+000 3.000000000000e+000 1.013250000000e+005 
1.000000000000e+000 0.000000000000e+000 4.000000000000e+000 1.013250000000e+005 
0.000000000000e+000 0.000000000000e+000 4.000000000000e+000 1.013250000000e+005 
1.000000000000e+000 0.000000000000e+000 5.000000000000e+000 1.013250000000e+005 
0.000000000000e+000 0.000000000000e+000 5.000000000000e+000 1.013250000000e+005 
1.000000000000e+000 0.000000000000e+000 6.000000000000e+000 1.013250000000e+005 
0.000000000000e+000 0.000000000000e+000 6.000000000000e+000 1.013250000000e+005 
1.000000000000e+000 0.000000000000e+000 7.000000000000e+000 1.013250000000e+005 
0.000000000000e+000 0.000000000000e+000 7.000000000000e+000 1.013250000000e+005 
1.000000000000e+000 0.000000000000e+000 8.000000000000e+000 1.013250000000e+005 
0.000000000000e+000 0.000000000000e+000 8.000000000000e+000 1.013250000000e+005 
1.000000000000e+000 0.000000000000e+000 9.000000000000e+000 1.013250000000e+005 
0.000000000000e+000 0.000000000000e+000 9.000000000000e+000 1.013250000000e+005 
1.000000000000e+000 0.000000000000e+000 1.000000000000e+001 1.013250000000e+005 
0.000000000000e+000 0.000000000000e+000 1.000000000000e+001 1.013250000000e+005 
1.000000000000e+000 0.000000000000e+000 1.100000000000e+001 1.013250000000e+005 
0.000000000000e+000 0.000000000000e+000 1.100000000000e+001 1.013250000000e+005 
1.000000000000e+000 0.000000000000e+000 1.200000000000e+001 1.013250000000e+005 
0.000000000000e+000 0.000000000000e+000 1.200000000000e+001 1.013250000000e+005 
1.000000000000e+000 0.000000000000e+000 1.300000000000e+001 1.013250000000e+005 
0.000000000000e+000 0.000000000000e+000 1.300000000000e+001 1.013250000000e+005 
1.000000000000e+000 0.000000000000e+000 1.400000000000e+001 1.013250000000e+005 
0.000000000000e+000 0.000000000000e+000 1.400000000000e+001 1.013250000000e+005 
1.000000000000e+000 0.000000000000e+000 1.500000000000e+001 1.013250000000e+005 
0.000000000000e+000 0.000000000000e+000 1.500000000000e+001 1.013250000000e+005 
1.000000000000e+000 0.000000000000e+000 1.600000000000e+001 1.013250000000e+005 
0.000000000000e+000 0.000000000000e+000 1.600000000000e+001 1.013250000000e+005 
1.000000000000e+000 0.000000000000e+000 1.700000000000e+001 1.013250000000e+005 
0.000000000000e+000 0.000000000000e+000 1.700000000000e+001 1.013250000000e+005 
1.000000000000e+000 0.000000000000e+000 1.800000000000e+001 1.013250000000e+005 
0.000000000000e+000 0.000000000000e+000 1.800000000000e+001 1.013250000000e+005 
1.000000000000e+000 0.000000000000e+000 1.900000000000e+001 1.013250000000e+005 
0.000000000000e+000 0.000000000000e+000 1.900000000000e+001 1.013250000000e+005 
1.000000000000e+000 0.000000000000e+000 2.000000000000e+001 1.013250000000e+005 
0.000000000000e+000 0.000000000000e+000 2.000000000000e+001 1.013250000000e+005 
1.000000000000e+000 0.000000000000e+000 2.100000000000e+001 1.013250000000e+005 
0.000000000000e+000 0.000000000000e+000 2.100000000000e+001 1.013250000000e+005 
1.000000000000e+000 0.000000000000e+000 2.200000000000e+001 1.013250000000e+005 
0.000000000000e+000 0.000000000000e+000 2.200000000000e+001 1.013250000000e+005 
1.000000000000e+000 0.000000000000e+000 2.300000000000e+001 1.013250000000e+005 
0.000000000000e+000 0.000000000000e+000 2.300000000000e+001 1.013250000000e+005 
1.000000000000e+000 0.000000000000e+000 2.400000000000e+001 1.013250000000e+005 
0.000000000000e+000 0.000000000000e+000 2.400000000000e+001 1.013250000000e+005 
1.000000000000e+000 0.000000000000e+000 2.500000000000e+001 1.013250000000e+005 
0.000000000000e+000 0.000000000000e+000 2.500000000000e+001 1.013250000000e+005 
1.000000000000e+000 0.000000000000e+000 2.600000000000e+001 1.013250000000e+005 
0.000000000000e+000 0.000000000000e+000 2.600000000000e+001 1.013250000000e+005 
1.000000000000e+000 0.000000000000e+000 2.700000000000e+001 1.013250000000e+005 
0.000000000000e+000 0.000000000000e+000 2.700000000000e+001 1.013250000000e+005 
1.000000000000e+000 0.000000000000e+000 2.800000000000e+001 1.013250000000e+005 
0.000000000000e+000 0.000000000000e+000 2.800000000000e+001 1.013250000000e+005 
1.000000000000e+000 0.000000000000e+000 2.900000000000e+001 1.013250000000e+005 
0.000000000000e+000 0.000000000000e+000 2.900000000000e+001 1.013250000000e+005 
1.000000000000e+000 0.000000000000e+000 3.000000000000e+001 1.013250000000e+005 
0.000000000000e+000 0.000000000000e+000 3.000000000000e+001 1.013250000000e+005 
2.000000000000e+000 0.000000000000e+000 0.000000000000e+000 1.013250000000e+005 
2.000000000000e+000 0.000000000000e+000 1.000000000000e+000 1.013250000000e+005 
2.000000000000e+000 0.000000000000e+000 2.000000000000e+000 1.013250000000e+005 
2.000000000000e+000 0.000000000000e+000 3.000000000000e+000 1.013250000000e+005 
2.000000000000e+000 0.000000000000e+000 4.000000000000e+000 1.013250000000e+005 
2.000000000000e+000 0.000000000000e+000 5.000000000000e+000 1.013250000000e+005 
2.000000000000e+000 0.000000000000e+000 6.000000000000e+000 1.013250000000e+005 
2.000000000000e+000 0.000000000000e+000 7.000000000000e+000 1.013250000000e+005 
2.000000000000e+000 0.000000000000e+000 8.000000000000e+000 1.013250000000e+005 
2.000000000000e+000 0.000000000000e+000 9.000000000000e+000 1.013250000000e+005 
2.000000000000e+000 0.000000000000e+000 1.000000000000e+001 1.013250000000e+005 
2.000000000000e+000 0.000000000000e+000 1.100000000000e+001 1.013250000000e+005 
2.000000000000e+000 0.000000000000e+000 1.200000000000e+001 1.013250000000e+005 
2.000000000000e+000 0.000000000000e+000 1.300000000000e+001 1.013250000000e+005 
2.000000000000e+000 0.000000000000e+000 1.400000000000e+001 1.013250000000e+005 
2.000000000000e+000 0.000000000000e+000 1.500000000000e+001 1.013250000000e+005 
2.000000000000e+000 0.000000000000e+000 1.600000000000e+001 1.013250000000e+005 
2.000000000000e+000 0.000000000000e+000 1.700000000000e+001 1.013250000000e+005 
2.000000000000e+000 0.000000000000e+000 1.800000000000e+001 1.013250000000e+005 
2.000000000000e+000 0.000000000000e+000 1.900000000000e+001 1.013250000000e+005 
2.000000000000e+000 0.000000000000e+000 2.000000000000e+001 1.013250000000e+005 
2.000000000000e+000 0.000000000000e+000 2.100000000000e+001 1.013250000000e+005 
2.000000000000e+000 0.000000000000e+000 2.200000000000e+001 1.013250000000e+005 
2.000000000000e+000 0.000000000000e+000 2.300000000000e+001 1.013250000000e+005 
2.000000000000e+000 0.000000000000e+000 2.400000000000e+001 1.013250000000e+005 
2.000000000000e+000 0.000000000000e+000 2.500000000000e+001 1.013250000000e+005 
2.000000000000e+000 0.000000000000e+000 2.600000000000e+001 1.013250000000e+005 
2.000000000000e+000 0.000000000000e+000 2.700000000000e+001 1.013250000000e+005 
2.000000000000e+000 0.000000000000e+000 2.800000000000e+001 1.013250000000e+005 
2.000000000000e+000 0.000000000000e+000 2.900000000000e+001 1.013250000000e+005 
2.000000000000e+000 0.000000000000e+000 3.000000000000e+001 1.013250000000e+005 
3.000000000000e+000 0.000000000000e+000 0.000000000000e+000 1.013250000000e+005 
3.000000000000e+000 0.000000000000e+000 1.000000000000e+000 1.013250000000e+005 
3.000000000000e+000 0.000000000000e+000 2.000000000000e+000 1.013250000000e+005 
3.000000000000e+000 0.000000000000e+000 3.000000000000e+000 1.013250000000e+005 
3.000000000000e+000 0.000000000000e+000 4.000000000000e+000 1.013250000000e+005 
3.000000000000e+000 0.000000000000e+000 5.000000000000e+000 1.013250000000e+005 
3.000000000000e+000 0.000000000000e+000 6.000000000000e+000 1.013250000000e+005 
3.000000000000e+000 0.000000000000e+000 7.000000000000e+000 1.013250000000e+005 
3.000000000000e+000 0.000000000000e+000 8.000000000000e+000 1.013250000000e+005 
3.000000000000e+000 0.000000000000e+000 9.000000000000e+000 1.013250000000e+005 
3.000000000000e+000 0.000000000000e+000 1.000000000000e+001 1.013250000000e+005 
3.000000000000e+000 0.000000000000e+000 1.100000000000e+001 1.013250000000e+005 
3.000000000000e+000 0.000000000000e+000 1.200000000000e+001 1.013250000000e+005 
3.000000000000e+000 0.000000000000e+000 1.300000000000e+001 1.013250000000e+005 
3.000000000000e+000 0.000000000000e+000 1.400000000000e+001 1.013250000000e+005 
3.000000000000e+000 0.000000000000e+000 1.500000000000e+001 1.013250000000e+005 
3.000000000000e+000 0.000000000000e+000 1.600000000000e+001 1.013250000000e+005 
3.000000000000e+000 0.000000000000e+000 1.700000000000e+001 1.013250000000e+005 
3.000000000000e+000 0.000000000000e+000 1.800000000000e+001 1.013250000000e+005 
3.000000000000e+000 0.000000000000e+000 1.900000000000e+001 1.013250000000e+005 
3.000000000000e+000 0.000000000000e+000 2.000000000000e+001 1.013250000000e+005 
3.000000000000e+000 0.000000000000e+000 2.100000000000e+001 1.013250000000e+005 
3.000000000000e+000 0.000000000000e+000 2.200000000000e+001 1.013250000000e+005 
3.000000000000e+000 0.000000000000e+000 2.300000000000e+001 1.013250000000e+005 
3.000000000000e+000 0.000000000000e+000 2.400000000000e+001 1.013250000000e+005 
3.000000000000e+000 0.000000000000e+000 2.500000000000e+001 1.013250000000e+005 
3.000000000000e+000 0.000000000000e+000 2.600000000000e+001 1.013250000000e+005 
3.000000000000e+000 0.000000000000e+000 2.700000000000e+001 1.013250000000e+005 
3.000000000000e+000 0.000000000000e+000 2.800000000000e+001 1.013250000000e+005 
3.000000000000e+000 0.000000000000e+000 2.900000000000e+001 1.013250000000e+005 
3.000000000000e+000 0.000000000000e+000 3.000000000000e+001 1.013250000000e+005 
4.000000000000e+000 0.000000000000e+000 0.000000000000e+000 1.013250000000e+005 
4.000000000000e+000 0.000000000000e+000 1.000000000000e+000 1.013250000000e+005 
4.000000000000e+000 0.000000000000e+000 2.000000000000e+000 1.013250000000e+005 
4.000000000000e+000 0.000000000000e+000 3.000000000000e+000 1.013250000000e+005 
4.000000000000e+000 0.000000000000e+000 4.000000000000e+000 1.013250000000e+005 
4.000000000000e+000 0.000000000000e+000 5.000000000000e+000 1.013250000000e+005 
4.000000000000e+000 0.000000000000e+000 6.000000000000e+000 1.013250000000e+005 
4.000000000000e+000 0.000000000000e+000 7.000000000000e+000 1.013250000000e+005 
4.000000000000e+000 0.000000000000e+000 8.000000000000e+000 1.013250000000e+005 
4.000000000000e+000 0.000000000000e+000 9.000000000000e+000 1.013250000000e+005 
4.000000000000e+000 0.000000000000e+000 1.000000000000e+001 1.013250000000e+005 
4.000000000000e+000 0.000000000000e+000 1.100000000000e+001 1.013250000000e+005 
4.000000000000e+000 0.000000000000e+000 1.200000000000e+001 1.013250000000e+005 
4.000000000000e+000 0.000000000000e+000 1.300000000000e+001 1.013250000000e+005 
4.000000000000e+000 0.000000000000e+000 1.400000000000e+001 1.013250000000e+005 
4.000000000000e+000 0.000000000000e+000 1.500000000000e+001 1.013250000000e+005 
4.000000000000e+000 0.000000000000e+000 1.600000000000e+001 1.013250000000e+005 
4.000000000000e+000 0.000000000000e+000 1.700000000000e+001 1.013250000000e+005 
4.000000000000e+000 0.000000000000e+000 1.800000000000e+001 1.013250000000e+005 
4.000000000000e+000 0.000000000000e+000 1.900000000000e+001 1.013250000000e+005 
4.000000000000e+000 0.000000000000e+000 2.000000000000e+001 1.013250000000e+005 
4.000000000000e+000 0.000000000000e+000 2.100000000000e+001 1.013250000000e+005 
4.000000000000e+000 0.000000000000e+000 2.200000000000e+001 1.013250000000e+005 
4.000000000000e+000 0.000000000000e+000 2.300000000000e+001 1.013250000000e+005 
4.000000000000e+000 0.000000000000e+000 2.400000000000e+001 1.013250000000e+005 
4.000000000000e+000 0.000000000000e+000 2.500000000000e+001 1.013250000000e+005 
4.000000000000e+000 0.000000000000e+000 2.600000000000e+001 1.013250000000e+005 
4.000000000000e+000 0.000000000000e+000 2.700000000000e+001 1.013250000000e+005 
4.000000000000e+000 0.000000000000e+000 2.800000000000e+001 1.013250000000e+005 
4.000000000000e+000 0.000000000000e+000 2.900000000000e+001 1.013250000000e+005 
4.000000000000e+000 0.000000000000e+000 3.000000000000e+001 1.013250000000e+005 
5.000000000000e+000 0.000000000000e+000 0.000000000000e+000 1.013250000000e+005 
5.000000000000e+000 0.000000000000e+000 1.000000000000e+000 1.013250000000e+005 
5.000000000000e+000 0.000000000000e+000 2.000000000000e+000 1.013250000000e+005 
5.000000000000e+000 0.000000000000e+000 3.000000000000e+000 1.013250000000e+005 
5.000000000000e+000 0.000000000000e+000 4.000000000000e+000 1.013250000000e+005 
5.000000000000e+000 0.000000000000e+000 5.000000000000e+000 1.013250000000e+005 
5.000000000000e+000 0.000000000000e+000 6.000000000000e+000 1.013250000000e+005 
5.000000000000e+000 0.000000000000e+000 7.000000000000e+000 1.013250000000e+005 
5.000000000000e+000 0.000000000000e+000 8.000000000000e+000 1.013250000000e+005 
5.000000000000e+000 0.000000000000e+000 9.000000000000e+000 1.013250000000e+005 
5.000000000000e+000 0.000000000000e+000 1.000000000000e+001 1.013250000000e+005 
5.000000000000e+000 0.000000000000e+000 1.100000000000e+001 1.013250000000e+005 
5.000000000000e+000 0.000000000000e+000 1.200000000000e+001 1.013250000000e+005 
5.000000000000e+000 0.000000000000e+000 1.300000000000e+001 1.013250000000e+005 
5.000000000000e+000 0.000000000000e+000 1.400000000000e+001 1.013250000000e+005 
5.000000000000e+000 0.000000000000e+000 1.500000000000e+001 1.013250000000e+005 
5.000000000000e+000 0.000000000000e+000 1.600000000000e+001 1.013250000000e+005 
5.000000000000e+000 0.000000000000e+000 1.700000000000e+001 1.013250000000e+005 
5.000000000000e+000 0.000000000000e+000 1.800000000000e+001 1.013250000000e+005 
5.000000000000e+000 0.000000000000e+000 1.900000000000e+001 1.013250000000e+005 
5.000000000000e+000 0.000000000000e+000 2.000000000000e+001 1.013250000000e+005 
5.000000000000e+000 0.000000000000e+000 2.100000000000e+001 1.013250000000e+005 
5.000000000000e+000 0.000000000000e+000 2.200000000000e+001 1.013250000000e+005 
5.000000000000e+000 0.000000000000e+000 2.300000000000e+001 1.013250000000e+005 
5.000000000000e+000 0.000000000000e+000 2.400000000000e+001 1.013250000000e+005 
5.000000000000e+000 0.000000000000e+000 2.500000000000e+001 1.013250000000e+005 
5.000000000000e+000 0.000000000000e+000 2.600000000000e+001 1.013250000000e+005 
5.000000000000e+000 0.000000000000e+000 2.700000000000e+001 1.013250000000e+005 
5.000000000000e+000 0.000000000000e+000 2.800000000000e+001 1.013250000000e+005 
5.000000000000e+000 0.000000000000e+000 2.900000000000e+001 1.013250000000e+005 
5.000000000000e+000 0.000000000000e+000 3.000000000000e+001 1.013250000000e+005 
6.000000000000e+000 0.000000000000e+000 0.000000000000e+000 1.013250000000e+005 
6.000000000000e+000 0.000000000000e+000 1.000000000000e+000 1.013250000000e+005 
6.000000000000e+000 0.000000000000e+000 2.000000000000e+000 1.013250000000e+005 
6.000000000000e+000 0.000000000000e+000 3.000000000000e+000 1.013250000000e+005 
6.000000000000e+000 0.000000000000e+000 4.000000000000e+000 1.013250000000e+005 
6.000000000000e+000 0.000000000000e+000 5.000000000000e+000 1.013250000000e+005 
6.000000000000e+000 0.000000000000e+000 6.000000000000e+000 1.013250000000e+005 
6.000000000000e+000 0.000000000000e+000 7.000000000000e+000 1.013250000000e+005 
6.000000000000e+000 0.000000000000e+000 8.000000000000e+000 1.013250000000e+005 
6.000000000000e+000 0.000000000000e+000 9.000000000000e+000 1.013250000000e+005 
6.000000000000e+000 0.000000000000e+000 1.000000000000e+001 1.013250000000e+005 
6.000000000000e+000 0.000000000000e+000 1.100000000000e+001 1.013250000000e+005 
6.000000000000e+000 0.000000000000e+000 1.200000000000e+001 1.013250000000e+005 
6.000000000000e+000 0.000000000000e+000 1.300000000000e+001 1.013250000000e+005 
6.000000000000e+000 0.000000000000e+000 1.400000000000e+001 1.013250000000e+005 
6.000000000000e+000 0.000000000000e+000 1.500000000000e+001 1.013250000000e+005 
6.000000000000e+000 0.000000000000e+000 1.600000000000e+001 1.013250000000e+005 
6.000000000000e+000 0.000000000000e+000 1.700000000000e+001 1.013250000000e+005 
6.000000000000e+000 0.000000000000e+000 1.800000000000e+001 1.013250000000e+005 
6.000000000000e+000 0.000000000000e+000 1.900000000000e+001 1.013250000000e+005 
6.000000000000e+000 0.000000000000e+000 2.000000000000e+001 1.013250000000e+005 
6.000000000000e+000 0.000000000000e+000 2.100000000000e+001 1.013250000000e+005 
6.000000000000e+000 0.000000000000e+000 2.200000000000e+001 1.013250000000e+005 
6.000000000000e+000 0.000000000000e+000 2.300000000000e+001 1.013250000000e+005 
6.000000000000e+000 0.000000000000e+000 2.400000000000e+001 1.013250000000e+005 
6.000000000000e+000 0.000000000000e+000 2.500000000000e+001 1.013250000000e+005 
6.000000000000e+000 0.000000000000e+000 2.600000000000e+001 1.013250000000e+005 
6.000000000000e+000 0.000000000000e+000 2.700000000000e+001 1.013250000000e+005 
6.000000000000e+000 0.000000000000e+000 2.800000000000e+001 1.013250000000e+005 
6.000000000000e+000 0.000000000000e+000 2.900000000000e+001 1.013250000000e+005 
6.000000000000e+000 0.000000000000e+000 3.000000000000e+001 1.013250000000e+005 
7.000000000000e+000 0.000000000000e+000 0.000000000000e+000 1.013250000000e+005 
7.000000000000e+000 0.000000000000e+000 1.000000000000e+000 1.013250000000e+005 
7.000000000000e+000 0.000000000000e+000 2.000000000000e+000 1.013250000000e+005 
7.000000000000e+000 0.000000000000e+000 3.000000000000e+000 1.013250000000e+005 
7.000000000000e+000 0.000000000000e+000 4.000000000000e+000 1.013250000000e+005 
7.000000000000e+000 0.000000000000e+000 5.000000000000e+000 1.013250000000e+005 
7.000000000000e+000 0.000000000000e+000 6.000000000000e+000 1.013250000000e+005 
7.000000000000e+000 0.000000000000e+000 7.000000000000e+000 1.013250000000e+005 
7.000000000000e+000 0.000000000000e+000 8.000000000000e+000 1.013250000000e+005 
7.000000000000e+000 0.000000000000e+000 9.000000000000e+000 1.013250000000e+005 
7.000000000000e+000 0.000000000000e+000 1.000000000000e+001 1.013250000000e+005 
7.000000000000e+000 0.000000000000e+000 1.100000000000e+001 1.013250000000e+005 
7.000000000000e+000 0.000000000000e+000 1.200000000000e+001 1.013250000000e+005 
7.000000000000e+000 0.000000000000e+000 1.300000000000e+001 1.013250000000e+005 
7.000000000000e+000 0.000000000000e+000 1.400000000000e+001 1.013250000000e+005 
7.000000000000e+000 0.000000000000e+000 1.500000000000e+001 1.013250000000e+005 
7.000000000000e+000 0.000000000000e+000 1.600000000000e+001 1.013250000000e+005 
7.000000000000e+000 0.000000000000e+000 1.700000000000e+001 1.013250000000e+005 
7.000000000000e+000 0.000000000000e+000 1.800000000000e+001 1.013250000000e+005 
7.000000000000e+000 0.000000000000e+000 1.900000000000e+001 1.013250000000e+005 
7.000000000000e+000 0.000000000000e+000 2.000000000000e+001 1.013250000000e+005 
7.000000000000e+000 0.000000000000e+000 2.100000000000e+001 1.013250000000e+005 
7.000000000000e+000 0.000000000000e+000 2.200000000000e+001 1.013250000000e+005 
7.000000000000e+000 0.000000000000e+000 2.300000000000e+001 1.013250000000e+005 
7.000000000000e+000 0.000000000000e+000 2.400000000000e+001 1.013250000000e+005 
7.000000000000e+000 0.000000000000e+000 2.500000000000e+001 1.013250000000e+005 
7.000000000000e+000 0.000000000000e+000 2.600000000000e+001 1.013250000000e+005 
7.000000000000e+000 0.000000000000e+000 2.700000000000e+001 1.013250000000e+005 
7.000000000000e+000 0.000000000000e+000 2.800000000000e+001 1.013250000000e+005 
7.000000000000e+000 0.000000000000e+000 2.900000000000e+001 1.013250000000e+005 
7.000000000000e+000 0.000000000000e+000 3.000000000000e+001 1.013250000000e+005 
8.000000000000e+000 0.000000000000e+000 0.000000000000e+000 1.013250000000e+005 
8.000000000000e+000 0.000000000000e+000 1.000000000000e+000 1.013250000000e+005 
8.000000000000e+000 0.000000000000e+000 2.000000000000e+000 1.013250000000e+005 
8.000000000000e+000 0.000000000000e+000 3.000000000000e+000 1.013250000000e+005 
8.000000000000e+000 0.000000000000e+000 4.000000000000e+000 1.013250000000e+005 
8.000000000000e+000 0.000000000000e+000 5.000000000000e+000 1.013250000000e+005 
8.000000000000e+000 0.000000000000e+000 6.000000000000e+000 1.013250000000e+005 
8.000000000000e+000 0.000000000000e+000 7.000000000000e+000 1.013250000000e+005 
8.000000000000e+000 0.000000000000e+000 8.000000000000e+000 1.013250000000e+005 
8.000000000000e+000 0.000000000000e+000 9.000000000000e+000 1.013250000000e+005 
8.000000000000e+000 0.000000000000e+000 1.000000000000e+001 1.013250000000e+005 
8.000000000000e+000 0.000000000000e+000 1.100000000000e+001 1.013250000000e+005 
8.000000000000e+000 0.000000000000e+000 1.200000000000e+001 1.013250000000e+005 
8.000000000000e+000 0.000000000000e+000 1.300000000000e+001 1.013250000000e+005 
8.000000000000e+000 0.000000000000e+000 1.400000000000e+001 1.013250000000e+005 
8.000000000000e+000 0.000000000000e+000 1.500000000000e+001 1.013250000000e+005 
8.000000000000e+000 0.000000000000e+000 1.600000000000e+001 1.013250000000e+005 
8.000000000000e+000 0.000000000000e+000 1.700000000000e+001 1.013250000000e+005 
8.000000000000e+000 0.000000000000e+000 1.800000000000e+001 1.013250000000e+005 
8.000000000000e+000 0.000000000000e+000 1.900000000000e+001 1.013250000000e+005 
8.000000000000e+000 0.000000000000e+000 2.000000000000e+001 1.013250000000e+005 
8.000000000000e+000 0.000000000000e+000 2.100000000000e+001 1.013250000000e+005 
8.000000000000e+000 0.000000000000e+000 2.200000000000e+001 1.013250000000e+005 
8.000000000000e+000 0.000000000000e+000 2.300000000000e+001 1.013250000000e+005 
8.000000000000e+000 0.000000000000e+000 2.400000000000e+001 1.013250000000e+005 
8.000000000000e+000 0.000000000000e+000 2.500000000000e+001 1.013250000000e+005 
8.000000000000e+000 0.000000000000e+000 2.600000000000e+001 1.013250000000e+005 
8.000000000000e+000 0.000000000000e+000 2.700000000000e+001 1.013250000000e+005 
8.000000000000e+000 0.000000000000e+000 2.800000000000e+001 1.013250000000e+005 
8.000000000000e+000 0.000000000000e+000 2.900000000000e+001 1.013250000000e+005 
8.000000000000e+000 0.000000000000e+000 3.000000000000e+001 1.013250000000e+005 
9.000000000000e+000 0.000000000000e+000 0.000000000000e+000 1.013250000000e+005 
9.000000000000e+000 0.000000000000e+000 1.000000000000e+000 1.013250000000e+005 
9.000000000000e+000 0.000000000000e+000 2.000000000000e+000 1.013250000000e+005 
9.000000000000e+000 0.000000000000e+000 3.000000000000e+000 1.013250000000e+005 
9.000000000000e+000 0.000000000000e+000 4.000000000000e+000 1.013250000000e+005 
9.000000000000e+000 0.000000000000e+000 5.000000000000e+000 1.013250000000e+005 
9.000000000000e+000 0.000000000000e+000 6.000000000000e+000 1.013250000000e+005 
9.000000000000e+000 0.000000000000e+000 7.000000000000e+000 1.013250000000e+005 
9.000000000000e+000 0.000000000000e+000 8.000000000000e+000 1.013250000000e+005 
9.000000000000e+000 0.000000000000e+000 9.000000000000e+000 1.013250000000e+005 
9.000000000000e+000 0.000000000000e+000 1.000000000000e+001 1.013250000000e+005 
9.000000000000e+000 0.000000000000e+000 1.100000000000e+001 1.013250000000e+005 
9.000000000000e+000 0.000000000000e+000 1.200000000000e+001 1.013250000000e+005 
9.000000000000e+000 0.000000000000e+000 1.300000000000e+001 1.013250000000e+005 
9.000000000000e+000 0.000000000000e+000 1.400000000000e+001 1.013250000000e+005 
9.000000000000e+000 0.000000000000e+000 1.500000000000e+001 1.013250000000e+005 
9.000000000000e+000 0.000000000000e+000 1.600000000000e+001 1.013250000000e+005 
9.000000000000e+000 0.000000000000e+000 1.700000000000e+001 1.013250000000e+005 
9.000000000000e+000 0.000000000000e+000 1.800000000000e+001 1.013250000000e+005 
9.000000000000e+000 0.000000000000e+000 1.900000000000e+001 1.013250000000e+005 
9.000000000000e+000 0.000000000000e+000 2.000000000000e+001 1.013250000000e+005 
9.000000000000e+000 0.000000000000e+000 2.100000000000e+001 1.013250000000e+005 
9.000000000000e+000 0.000000000000e+000 2.200000000000e+001 1.013250000000e+005 
9.000000000000e+000 0.000000000000e+000 2.300000000000e+001 1.013250000000e+005 
9.000000000000e+000 0.000000000000e+000 2.400000000000e+001 1.013250000000e+005 
9.000000000000e+000 0.000000000000e+000 2.500000000000e+001 1.013250000000e+005 
9.000000000000e+000 0.000000000000e+000 2.600000000000e+001 1.013250000000e+005 
9.000000000000e+000 0.000000000000e+000 2.700000000000e+001 1.013250000000e+005 
9.000000000000e+000 0.000000000000e+000 2.800000000000e+001 1.013250000000e+005 
9.000000000000e+000 0.000000000000e+000 2.900000000000e+001 1.013250000000e+005 
9.000000000000e+000 0.000000000000e+000 3.000000000000e+001 1.013250000000e+005 
1.000000000000e+001 0.000000000000e+000 0.000000000000e+000 1.013250000000e+005 
1.000000000000e+001 0.000000000000e+000 1.000000000000e+000 1.013250000000e+005 
1.000000000000e+001 0.000000000000e+000 2.000000000000e+000 1.013250000000e+005 
1.000000000000e+001 0.000000000000e+000 3.000000000000e+000 1.013250000000e+005 
1.000000000000e+001 0.000000000000e+000 4.000000000000e+000 1.013250000000e+005 
1.000000000000e+001 0.000000000000e+000 5.000000000000e+000 1.013250000000e+005 
1.000000000000e+001 0.000000000000e+000 6.000000000000e+000 1.013250000000e+005 
1.000000000000e+001 0.000000000000e+000 7.000000000000e+000 1.013250000000e+005 
1.000000000000e+001 0.000000000000e+000 8.000000000000e+000 1.013250000000e+005 
1.000000000000e+001 0.000000000000e+000 9.000000000000e+000 1.013250000000e+005 
1.000000000000e+001 0.000000000000e+000 1.000000000000e+001 1.013250000000e+005 
1.000000000000e+001 0.000000000000e+000 1.100000000000e+001 1.013250000000e+005 
1.000000000000e+001 0.000000000000e+000 1.200000000000e+001 1.013250000000e+005 
1.000000000000e+001 0.000000000000e+000 1.300000000000e+001 1.013250000000e+005 
1.000000000000e+001 0.000000000000e+000 1.400000000000e+001 1.013250000000e+005 
1.000000000000e+001 0.000000000000e+000 1.500000000000e+001 1.013250000000e+005 
1.000000000000e+001 0.000000000000e+000 1.600000000000e+001 1.013250000000e+005 
1.000000000000e+001 0.000000000000e+000 1.700000000000e+001 1.013250000000e+005 
1.000000000000e+001 0.000000000000e+000 1.800000000000e+001 1.013250000000e+005 
1.000000000000e+001 0.000000000000e+000 1.900000000000e+001 1.013250000000e+005 
1.000000000000e+001 0.000000000000e+000 2.000000000000e+001 1.013250000000e+005 
1.000000000000e+001 0.000000000000e+000 2.100000000000e+001 1.013250000000e+005 
1.000000000000e+001 0.000000000000e+000 2.200000000000e+001 1.013250000000e+005 
1.000000000000e+001 0.000000000000e+000 2.300000000000e+001 1.013250000000e+005 
1.000000000000e+001 0.000000000000e+000 2.400000000000e+001 1.013250000000e+005 
1.000000000000e+001 0.000000000000e+000 2.500000000000e+001 1.013250000000e+005 
1.000000000000e+001 0.000000000000e+000 2.600000000000e+001 1.013250000000e+005 
1.000000000000e+001 0.000000000000e+000 2.700000000000e+001 1.013250000000e+005 
1.000000000000e+001 0.000000000000e+000 2.800000000000e+001 1.013250000000e+005 
1.000000000000e+001 0.000000000000e+000 2.900000000000e+001 1.013250000000e+005 
1.000000000000e+001 0.000000000000e+000 3.000000000000e+001 1.013250000000e+005 
1.100000000000e+001 0.000000000000e+000 0.000000000000e+000 1.013250000000e+005 
1.100000000000e+001 0.000000000000e+000 1.000000000000e+000 1.013250000000e+005 
1.100000000000e+001 0.000000000000e+000 2.000000000000e+000 1.013250000000e+005 
1.100000000000e+001 0.000000000000e+000 3.000000000000e+000 1.013250000000e+005 
1.100000000000e+001 0.000000000000e+000 4.000000000000e+000 1.013250000000e+005 
1.100000000000e+001 0.000000000000e+000 5.000000000000e+000 1.013250000000e+005 
1.100000000000e+001 0.000000000000e+000 6.000000000000e+000 1.013250000000e+005 
1.100000000000e+001 0.000000000000e+000 7.000000000000e+000 1.013250000000e+005 
1.100000000000e+001 0.000000000000e+000 8.000000000000e+000 1.013250000000e+005 
1.100000000000e+001 0.000000000000e+000 9.000000000000e+000 1.013250000000e+005 
1.100000000000e+001 0.000000000000e+000 1.000000000000e+001 1.013250000000e+005 
1.100000000000e+001 0.000000000000e+000 1.100000000000e+001 1.013250000000e+005 
1.100000000000e+001 0.000000000000e+000 1.200000000000e+001 1.013250000000e+005 
1.100000000000e+001 0.000000000000e+000 1.300000000000e+001 1.013250000000e+005 
1.100000000000e+001 0.000000000000e+000 1.400000000000e+001 1.013250000000e+005 
1.100000000000e+001 0.000000000000e+000 1.500000000000e+001 1.013250000000e+005 
1.100000000000e+001 0.000000000000e+000 1.600000000000e+001 1.013250000000e+005 
1.100000000000e+001 0.000000000000e+000 1.700000000000e+001 1.013250000000e+005 
1.100000000000e+001 0.000000000000e+000 1.800000000000e+001 1.013250000000e+005 
1.100000000000e+001 0.000000000000e+000 1.900000000000e+001 1.013250000000e+005 
1.100000000000e+001 0.000000000000e+000 2.000000000000e+001 1.013250000000e+005 
1.100000000000e+001 0.000000000000e+000 2.100000000000e+001 1.013250000000e+005 
1.100000000000e+001 0.000000000000e+000 2.200000000000e+001 1.013250000000e+005 
1.100000000000e+001 0.000000000000e+000 2.300000000000e+001 1.013250000000e+005 
1.100000000000e+001 0.000000000000e+000 2.400000000000e+001 1.013250000000e+005 
1.100000000000e+001 0.000000000000e+000 2.500000000000e+001 1.013250000000e+005 
1.100000000000e+001 0.000000000000e+000 2.600000000000e+001 1.013250000000e+005 