VARIABLES  = "X","Y","Z", "PRESSURE2"
ZONE T="0.000000000000e+00s", N=961, E=900, F=FEPOINT, ET=QUADRILATERAL
STRANDID=1, SOLUTIONTIME=0.000000000000e+00
0.000000000000e+00 0.000000000000e+00 0.000000000000e+00 1.013250000000e+05 
1.000000000000e+00 0.000000000000e+00 0.000000000000e+00 1.013250000000e+05 
1.000000000000e+00 0.000000000000e+00 1.000000000000e+00 1.013250000000e+05 
0.000000000000e+00 0.000000000000e+00 1.000000000000e+00 1.013250000000e+05 
1.000000000000e+00 0.000000000000e+00 2.000000000000e+00 1.013250000000e+05 
0.000000000000e+00 0.000000000000e+00 2.000000000000e+00 1.013250000000e+05 
1.000000000000e+00 0.000000000000e+00 3.000000000000e+00 1.013250000000e+05 
0.000000000000e+00 0.000000000000e+00 3.000000000000e+00 1.013250000000e+05 
1.000000000000e+00 0.000000000000e+00 4.000000000000e+00 1.013250000000e+05 
0.000000000000e+00 0.000000000000e+00 4.000000000000e+00 1.013250000000e+05 
1.000000000000e+00 0.000000000000e+00 5.000000000000e+00 1.013250000000e+05 
0.000000000000e+00 0.000000000000e+00 5.000000000000e+00 1.013250000000e+05 
1.000000000000e+00 0.000000000000e+00 6.000000000000e+00 1.013250000000e+05 
0.000000000000e+00 0.000000000000e+00 6.000000000000e+00 1.013250000000e+05 
1.000000000000e+00 0.000000000000e+00 7.000000000000e+00 1.013250000000e+05 
0.000000000000e+00 0.000000000000e+00 7.000000000000e+00 1.013250000000e+05 
1.000000000000e+00 0.000000000000e+00 8.000000000000e+00 1.013250000000e+05 
0.000000000000e+00 0.000000000000e+00 8.000000000000e+00 1.013250000000e+05 
1.000000000000e+00 0.000000000000e+00 9.000000000000e+00 1.013250000000e+05 
0.000000000000e+00 0.000000000000e+00 9.000000000000e+00 1.013250000000e+05 
1.000000000000e+00 0.000000000000e+00 1.000000000000e+01 1.013250000000e+05 
0.000000000000e+00 0.000000000000e+00 1.000000000000e+01 1.013250000000e+05 
1.000000000000e+00 0.000000000000e+00 1.100000000000e+01 1.013250000000e+05 
0.000000000000e+00 0.000000000000e+00 1.100000000000e+01 1.013250000000e+05 
1.000000000000e+00 0.000000000000e+00 1.200000000000e+01 1.013250000000e+05 
0.000000000000e+00 0.000000000000e+00 1.200000000000e+01 1.013250000000e+05 
1.000000000000e+00 0.000000000000e+00 1.300000000000e+01 1.013250000000e+05 
0.000000000000e+00 0.000000000000e+00 1.300000000000e+01 1.013250000000e+05 
1.000000000000e+00 0.000000000000e+00 1.400000000000e+01 1.013250000000e+05 
0.000000000000e+00 0.000000000000e+00 1.400000000000e+01 1.013250000000e+05 
1.000000000000e+00 0.000000000000e+00 1.500000000000e+01 1.013250000000e+05 
0.000000000000e+00 0.000000000000e+00 1.500000000000e+01 1.013250000000e+05 
1.000000000000e+00 0.000000000000e+00 1.600000000000e+01 1.013250000000e+05 
0.000000000000e+00 0.000000000000e+00 1.600000000000e+01 1.013250000000e+05 
1.000000000000e+00 0.000000000000e+00 1.700000000000e+01 1.013250000000e+05 
0.000000000000e+00 0.000000000000e+00 1.700000000000e+01 1.013250000000e+05 
1.000000000000e+00 0.000000000000e+00 1.800000000000e+01 1.013250000000e+05 
0.000000000000e+00 0.000000000000e+00 1.800000000000e+01 1.013250000000e+05 
1.000000000000e+00 0.000000000000e+00 1.900000000000e+01 1.013250000000e+05 
0.000000000000e+00 0.000000000000e+00 1.900000000000e+01 1.013250000000e+05 
1.000000000000e+00 0.000000000000e+00 2.000000000000e+01 1.013250000000e+05 
0.000000000000e+00 0.000000000000e+00 2.000000000000e+01 1.013250000000e+05 
1.000000000000e+00 0.000000000000e+00 2.100000000000e+01 1.013250000000e+05 
0.000000000000e+00 0.000000000000e+00 2.100000000000e+01 1.013250000000e+05 
1.000000000000e+00 0.000000000000e+00 2.200000000000e+01 1.013250000000e+05 
0.000000000000e+00 0.000000000000e+00 2.200000000000e+01 1.013250000000e+05 
1.000000000000e+00 0.000000000000e+00 2.300000000000e+01 1.013250000000e+05 
0.000000000000e+00 0.000000000000e+00 2.300000000000e+01 1.013250000000e+05 
1.000000000000e+00 0.000000000000e+00 2.400000000000e+01 1.013250000000e+05 
0.000000000000e+00 0.000000000000e+00 2.400000000000e+01 1.013250000000e+05 
1.000000000000e+00 0.000000000000e+00 2.500000000000e+01 1.013250000000e+05 
0.000000000000e+00 0.000000000000e+00 2.500000000000e+01 1.013250000000e+05 
1.000000000000e+00 0.000000000000e+00 2.600000000000e+01 1.013250000000e+05 
0.000000000000e+00 0.000000000000e+00 2.600000000000e+01 1.013250000000e+05 
1.000000000000e+00 0.000000000000e+00 2.700000000000e+01 1.013250000000e+05 
0.000000000000e+00 0.000000000000e+00 2.700000000000e+01 1.013250000000e+05 
1.000000000000e+00 0.000000000000e+00 2.800000000000e+01 1.013250000000e+05 
0.000000000000e+00 0.000000000000e+00 2.800000000000e+01 1.013250000000e+05 
1.000000000000e+00 0.000000000000e+00 2.900000000000e+01 1.013250000000e+05 
0.000000000000e+00 0.000000000000e+00 2.900000000000e+01 1.013250000000e+05 
1.000000000000e+00 0.000000000000e+00 3.000000000000e+01 1.013250000000e+05 
0.000000000000e+00 0.000000000000e+00 3.000000000000e+01 1.013250000000e+05 
2.000000000000e+00 0.000000000000e+00 0.000000000000e+00 1.013250000000e+05 
2.000000000000e+00 0.000000000000e+00 1.000000000000e+00 1.013250000000e+05 
2.000000000000e+00 0.000000000000e+00 2.000000000000e+00 1.013250000000e+05 
2.000000000000e+00 0.000000000000e+00 3.000000000000e+00 1.013250000000e+05 
2.000000000000e+00 0.000000000000e+00 4.000000000000e+00 1.013250000000e+05 
2.000000000000e+00 0.000000000000e+00 5.000000000000e+00 1.013250000000e+05 
2.000000000000e+00 0.000000000000e+00 6.000000000000e+00 1.013250000000e+05 
2.000000000000e+00 0.000000000000e+00 7.000000000000e+00 1.013250000000e+05 
2.000000000000e+00 0.000000000000e+00 8.000000000000e+00 1.013250000000e+05 
2.000000000000e+00 0.000000000000e+00 9.000000000000e+00 1.013250000000e+05 
2.000000000000e+00 0.000000000000e+00 1.000000000000e+01 1.013250000000e+05 
2.000000000000e+00 0.000000000000e+00 1.100000000000e+01 1.013250000000e+05 
2.000000000000e+00 0.000000000000e+00 1.200000000000e+01 1.013250000000e+05 
2.000000000000e+00 0.000000000000e+00 1.300000000000e+01 1.013250000000e+05 
2.000000000000e+00 0.000000000000e+00 1.400000000000e+01 1.013250000000e+05 
2.000000000000e+00 0.000000000000e+00 1.500000000000e+01 1.013250000000e+05 
2.000000000000e+00 0.000000000000e+00 1.600000000000e+01 1.013250000000e+05 
2.000000000000e+00 0.000000000000e+00 1.700000000000e+01 1.013250000000e+05 
2.000000000000e+00 0.000000000000e+00 1.800000000000e+01 1.013250000000e+05 
2.000000000000e+00 0.000000000000e+00 1.900000000000e+01 1.013250000000e+05 
2.000000000000e+00 0.000000000000e+00 2.000000000000e+01 1.013250000000e+05 
2.000000000000e+00 0.000000000000e+00 2.100000000000e+01 1.013250000000e+05 
2.000000000000e+00 0.000000000000e+00 2.200000000000e+01 1.013250000000e+05 
2.000000000000e+00 0.000000000000e+00 2.300000000000e+01 1.013250000000e+05 
2.000000000000e+00 0.000000000000e+00 2.400000000000e+01 1.013250000000e+05 
2.000000000000e+00 0.000000000000e+00 2.500000000000e+01 1.013250000000e+05 
2.000000000000e+00 0.000000000000e+00 2.600000000000e+01 1.013250000000e+05 
2.000000000000e+00 0.000000000000e+00 2.700000000000e+01 1.013250000000e+05 
2.000000000000e+00 0.000000000000e+00 2.800000000000e+01 1.013250000000e+05 
2.000000000000e+00 0.000000000000e+00 2.900000000000e+01 1.013250000000e+05 
2.000000000000e+00 0.000000000000e+00 3.000000000000e+01 1.013250000000e+05 
3.000000000000e+00 0.000000000000e+00 0.000000000000e+00 1.013250000000e+05 
3.000000000000e+00 0.000000000000e+00 1.000000000000e+00 1.013250000000e+05 
3.000000000000e+00 0.000000000000e+00 2.000000000000e+00 1.013250000000e+05 
3.000000000000e+00 0.000000000000e+00 3.000000000000e+00 1.013250000000e+05 
3.000000000000e+00 0.000000000000e+00 4.000000000000e+00 1.013250000000e+05 
3.000000000000e+00 0.000000000000e+00 5.000000000000e+00 1.013250000000e+05 
3.000000000000e+00 0.000000000000e+00 6.000000000000e+00 1.013250000000e+05 
3.000000000000e+00 0.000000000000e+00 7.000000000000e+00 1.013250000000e+05 
3.000000000000e+00 0.000000000000e+00 8.000000000000e+00 1.013250000000e+05 
3.000000000000e+00 0.000000000000e+00 9.000000000000e+00 1.013250000000e+05 
3.000000000000e+00 0.000000000000e+00 1.000000000000e+01 1.013250000000e+05 
3.000000000000e+00 0.000000000000e+00 1.100000000000e+01 1.013250000000e+05 
3.000000000000e+00 0.000000000000e+00 1.200000000000e+01 1.013250000000e+05 
3.000000000000e+00 0.000000000000e+00 1.300000000000e+01 1.013250000000e+05 
3.000000000000e+00 0.000000000000e+00 1.400000000000e+01 1.013250000000e+05 
3.000000000000e+00 0.000000000000e+00 1.500000000000e+01 1.013250000000e+05 
3.000000000000e+00 0.000000000000e+00 1.600000000000e+01 1.013250000000e+05 
3.000000000000e+00 0.000000000000e+00 1.700000000000e+01 1.013250000000e+05 
3.000000000000e+00 0.000000000000e+00 1.800000000000e+01 1.013250000000e+05 
3.000000000000e+00 0.000000000000e+00 1.900000000000e+01 1.013250000000e+05 
3.000000000000e+00 0.000000000000e+00 2.000000000000e+01 1.013250000000e+05 
3.000000000000e+00 0.000000000000e+00 2.100000000000e+01 1.013250000000e+05 
3.000000000000e+00 0.000000000000e+00 2.200000000000e+01 1.013250000000e+05 
3.000000000000e+00 0.000000000000e+00 2.300000000000e+01 1.013250000000e+05 
3.000000000000e+00 0.000000000000e+00 2.400000000000e+01 1.013250000000e+05 
3.000000000000e+00 0.000000000000e+00 2.500000000000e+01 1.013250000000e+05 
3.000000000000e+00 0.000000000000e+00 2.600000000000e+01 1.013250000000e+05 
3.000000000000e+00 0.000000000000e+00 2.700000000000e+01 1.013250000000e+05 
3.000000000000e+00 0.000000000000e+00 2.800000000000e+01 1.013250000000e+05 
3.000000000000e+00 0.000000000000e+00 2.900000000000e+01 1.013250000000e+05 
3.000000000000e+00 0.000000000000e+00 3.000000000000e+01 1.013250000000e+05 
4.000000000000e+00 0.000000000000e+00 0.000000000000e+00 1.013250000000e+05 
4.000000000000e+00 0.000000000000e+00 1.000000000000e+00 1.013250000000e+05 
4.000000000000e+00 0.000000000000e+00 2.000000000000e+00 1.013250000000e+05 
4.000000000000e+00 0.000000000000e+00 3.000000000000e+00 1.013250000000e+05 
4.000000000000e+00 0.000000000000e+00 4.000000000000e+00 1.013250000000e+05 
4.000000000000e+00 0.000000000000e+00 5.000000000000e+00 1.013250000000e+05 
4.000000000000e+00 0.000000000000e+00 6.000000000000e+00 1.013250000000e+05 
4.000000000000e+00 0.000000000000e+00 7.000000000000e+00 1.013250000000e+05 
4.000000000000e+00 0.000000000000e+00 8.000000000000e+00 1.013250000000e+05 
4.000000000000e+00 0.000000000000e+00 9.000000000000e+00 1.013250000000e+05 
4.000000000000e+00 0.000000000000e+00 1.000000000000e+01 1.013250000000e+05 
4.000000000000e+00 0.000000000000e+00 1.100000000000e+01 1.013250000000e+05 
4.000000000000e+00 0.000000000000e+00 1.200000000000e+01 1.013250000000e+05 
4.000000000000e+00 0.000000000000e+00 1.300000000000e+01 1.013250000000e+05 
4.000000000000e+00 0.000000000000e+00 1.400000000000e+01 1.013250000000e+05 
4.000000000000e+00 0.000000000000e+00 1.500000000000e+01 1.013250000000e+05 
4.000000000000e+00 0.000000000000e+00 1.600000000000e+01 1.013250000000e+05 
4.000000000000e+00 0.000000000000e+00 1.700000000000e+01 1.013250000000e+05 
4.000000000000e+00 0.000000000000e+00 1.800000000000e+01 1.013250000000e+05 
4.000000000000e+00 0.000000000000e+00 1.900000000000e+01 1.013250000000e+05 
4.000000000000e+00 0.000000000000e+00 2.000000000000e+01 1.013250000000e+05 
4.000000000000e+00 0.000000000000e+00 2.100000000000e+01 1.013250000000e+05 
4.000000000000e+00 0.000000000000e+00 2.200000000000e+01 1.013250000000e+05 
4.000000000000e+00 0.000000000000e+00 2.300000000000e+01 1.013250000000e+05 
4.000000000000e+00 0.000000000000e+00 2.400000000000e+01 1.013250000000e+05 
4.000000000000e+00 0.000000000000e+00 2.500000000000e+01 1.013250000000e+05 
4.000000000000e+00 0.000000000000e+00 2.600000000000e+01 1.013250000000e+05 
4.000000000000e+00 0.000000000000e+00 2.700000000000e+01 1.013250000000e+05 
4.000000000000e+00 0.000000000000e+00 2.800000000000e+01 1.013250000000e+05 
4.000000000000e+00 0.000000000000e+00 2.900000000000e+01 1.013250000000e+05 
4.000000000000e+00 0.000000000000e+00 3.000000000000e+01 1.013250000000e+05 
5.000000000000e+00 0.000000000000e+00 0.000000000000e+00 1.013250000000e+05 
5.000000000000e+00 0.000000000000e+00 1.000000000000e+00 1.013250000000e+05 
5.000000000000e+00 0.000000000000e+00 2.000000000000e+00 1.013250000000e+05 
5.000000000000e+00 0.000000000000e+00 3.000000000000e+00 1.013250000000e+05 
5.000000000000e+00 0.000000000000e+00 4.000000000000e+00 1.013250000000e+05 
5.000000000000e+00 0.000000000000e+00 5.000000000000e+00 1.013250000000e+05 
5.000000000000e+00 0.000000000000e+00 6.000000000000e+00 1.013250000000e+05 
5.000000000000e+00 0.000000000000e+00 7.000000000000e+00 1.013250000000e+05 
5.000000000000e+00 0.000000000000e+00 8.000000000000e+00 1.013250000000e+05 
5.000000000000e+00 0.000000000000e+00 9.000000000000e+00 1.013250000000e+05 
5.000000000000e+00 0.000000000000e+00 1.000000000000e+01 1.013250000000e+05 
5.000000000000e+00 0.000000000000e+00 1.100000000000e+01 1.013250000000e+05 
5.000000000000e+00 0.000000000000e+00 1.200000000000e+01 1.013250000000e+05 
5.000000000000e+00 0.000000000000e+00 1.300000000000e+01 1.013250000000e+05 
5.000000000000e+00 0.000000000000e+00 1.400000000000e+01 1.013250000000e+05 
5.000000000000e+00 0.000000000000e+00 1.500000000000e+01 1.013250000000e+05 
5.000000000000e+00 0.000000000000e+00 1.600000000000e+01 1.013250000000e+05 
5.000000000000e+00 0.000000000000e+00 1.700000000000e+01 1.013250000000e+05 
5.000000000000e+00 0.000000000000e+00 1.800000000000e+01 1.013250000000e+05 
5.000000000000e+00 0.000000000000e+00 1.900000000000e+01 1.013250000000e+05 
5.000000000000e+00 0.000000000000e+00 2.000000000000e+01 1.013250000000e+05 
5.000000000000e+00 0.000000000000e+00 2.100000000000e+01 1.013250000000e+05 
5.000000000000e+00 0.000000000000e+00 2.200000000000e+01 1.013250000000e+05 
5.000000000000e+00 0.000000000000e+00 2.300000000000e+01 1.013250000000e+05 
5.000000000000e+00 0.000000000000e+00 2.400000000000e+01 1.013250000000e+05 
5.000000000000e+00 0.000000000000e+00 2.500000000000e+01 1.013250000000e+05 
5.000000000000e+00 0.000000000000e+00 2.600000000000e+01 1.013250000000e+05 
5.000000000000e+00 0.000000000000e+00 2.700000000000e+01 1.013250000000e+05 
5.000000000000e+00 0.000000000000e+00 2.800000000000e+01 1.013250000000e+05 
5.000000000000e+00 0.000000000000e+00 2.900000000000e+01 1.013250000000e+05 
5.000000000000e+00 0.000000000000e+00 3.000000000000e+01 1.013250000000e+05 
6.000000000000e+00 0.000000000000e+00 0.000000000000e+00 1.013250000000e+05 
6.000000000000e+00 0.000000000000e+00 1.000000000000e+00 1.013250000000e+05 
6.000000000000e+00 0.000000000000e+00 2.000000000000e+00 1.013250000000e+05 
6.000000000000e+00 0.000000000000e+00 3.000000000000e+00 1.013250000000e+05 
6.000000000000e+00 0.000000000000e+00 4.000000000000e+00 1.013250000000e+05 
6.000000000000e+00 0.000000000000e+00 5.000000000000e+00 1.013250000000e+05 
6.000000000000e+00 0.000000000000e+00 6.000000000000e+00 1.013250000000e+05 
6.000000000000e+00 0.000000000000e+00 7.000000000000e+00 1.013250000000e+05 
6.000000000000e+00 0.000000000000e+00 8.000000000000e+00 1.013250000000e+05 
6.000000000000e+00 0.000000000000e+00 9.000000000000e+00 1.013250000000e+05 
6.000000000000e+00 0.000000000000e+00 1.000000000000e+01 1.013250000000e+05 
6.000000000000e+00 0.000000000000e+00 1.100000000000e+01 1.013250000000e+05 
6.000000000000e+00 0.000000000000e+00 1.200000000000e+01 1.013250000000e+05 
6.000000000000e+00 0.000000000000e+00 1.300000000000e+01 1.013250000000e+05 
6.000000000000e+00 0.000000000000e+00 1.400000000000e+01 1.013250000000e+05 
6.000000000000e+00 0.000000000000e+00 1.500000000000e+01 1.013250000000e+05 
6.000000000000e+00 0.000000000000e+00 1.600000000000e+01 1.013250000000e+05 
6.000000000000e+00 0.000000000000e+00 1.700000000000e+01 1.013250000000e+05 
6.000000000000e+00 0.000000000000e+00 1.800000000000e+01 1.013250000000e+05 
6.000000000000e+00 0.000000000000e+00 1.900000000000e+01 1.013250000000e+05 
6.000000000000e+00 0.000000000000e+00 2.000000000000e+01 1.013250000000e+05 
6.000000000000e+00 0.000000000000e+00 2.100000000000e+01 1.013250000000e+05 
6.000000000000e+00 0.000000000000e+00 2.200000000000e+01 1.013250000000e+05 
6.000000000000e+00 0.000000000000e+00 2.300000000000e+01 1.013250000000e+05 
6.000000000000e+00 0.000000000000e+00 2.400000000000e+01 1.013250000000e+05 
6.000000000000e+00 0.000000000000e+00 2.500000000000e+01 1.013250000000e+05 
6.000000000000e+00 0.000000000000e+00 2.600000000000e+01 1.013250000000e+05 
6.000000000000e+00 0.000000000000e+00 2.700000000000e+01 1.013250000000e+05 
6.000000000000e+00 0.000000000000e+00 2.800000000000e+01 1.013250000000e+05 
6.000000000000e+00 0.000000000000e+00 2.900000000000e+01 1.013250000000e+05 
6.000000000000e+00 0.000000000000e+00 3.000000000000e+01 1.013250000000e+05 
7.000000000000e+00 0.000000000000e+00 0.000000000000e+00 1.013250000000e+05 
7.000000000000e+00 0.000000000000e+00 1.000000000000e+00 1.013250000000e+05 
7.000000000000e+00 0.000000000000e+00 2.000000000000e+00 1.013250000000e+05 
7.000000000000e+00 0.000000000000e+00 3.000000000000e+00 1.013250000000e+05 
7.000000000000e+00 0.000000000000e+00 4.000000000000e+00 1.013250000000e+05 
7.000000000000e+00 0.000000000000e+00 5.000000000000e+00 1.013250000000e+05 
7.000000000000e+00 0.000000000000e+00 6.000000000000e+00 1.013250000000e+05 
7.000000000000e+00 0.000000000000e+00 7.000000000000e+00 1.013250000000e+05 
7.000000000000e+00 0.000000000000e+00 8.000000000000e+00 1.013250000000e+05 
7.000000000000e+00 0.000000000000e+00 9.000000000000e+00 1.013250000000e+05 
7.000000000000e+00 0.000000000000e+00 1.000000000000e+01 1.013250000000e+05 
7.000000000000e+00 0.000000000000e+00 1.100000000000e+01 1.013250000000e+05 
7.000000000000e+00 0.000000000000e+00 1.200000000000e+01 1.013250000000e+05 
7.000000000000e+00 0.000000000000e+00 1.300000000000e+01 1.013250000000e+05 
7.000000000000e+00 0.000000000000e+00 1.400000000000e+01 1.013250000000e+05 
7.000000000000e+00 0.000000000000e+00 1.500000000000e+01 1.013250000000e+05 
7.000000000000e+00 0.000000000000e+00 1.600000000000e+01 1.013250000000e+05 
7.000000000000e+00 0.000000000000e+00 1.700000000000e+01 1.013250000000e+05 
7.000000000000e+00 0.000000000000e+00 1.800000000000e+01 1.013250000000e+05 
7.000000000000e+00 0.000000000000e+00 1.900000000000e+01 1.013250000000e+05 
7.000000000000e+00 0.000000000000e+00 2.000000000000e+01 1.013250000000e+05 
7.000000000000e+00 0.000000000000e+00 2.100000000000e+01 1.013250000000e+05 
7.000000000000e+00 0.000000000000e+00 2.200000000000e+01 1.013250000000e+05 
7.000000000000e+00 0.000000000000e+00 2.300000000000e+01 1.013250000000e+05 
7.000000000000e+00 0.000000000000e+00 2.400000000000e+01 1.013250000000e+05 
7.000000000000e+00 0.000000000000e+00 2.500000000000e+01 1.013250000000e+05 
7.000000000000e+00 0.000000000000e+00 2.600000000000e+01 1.013250000000e+05 
7.000000000000e+00 0.000000000000e+00 2.700000000000e+01 1.013250000000e+05 
7.000000000000e+00 0.000000000000e+00 2.800000000000e+01 1.013250000000e+05 
7.000000000000e+00 0.000000000000e+00 2.900000000000e+01 1.013250000000e+05 
7.000000000000e+00 0.000000000000e+00 3.000000000000e+01 1.013250000000e+05 
8.000000000000e+00 0.000000000000e+00 0.000000000000e+00 1.013250000000e+05 
8.000000000000e+00 0.000000000000e+00 1.000000000000e+00 1.013250000000e+05 
8.000000000000e+00 0.000000000000e+00 2.000000000000e+00 1.013250000000e+05 
8.000000000000e+00 0.000000000000e+00 3.000000000000e+00 1.013250000000e+05 
8.000000000000e+00 0.000000000000e+00 4.000000000000e+00 1.013250000000e+05 
8.000000000000e+00 0.000000000000e+00 5.000000000000e+00 1.013250000000e+05 
8.000000000000e+00 0.000000000000e+00 6.000000000000e+00 1.013250000000e+05 
8.000000000000e+00 0.000000000000e+00 7.000000000000e+00 1.013250000000e+05 
8.000000000000e+00 0.000000000000e+00 8.000000000000e+00 1.013250000000e+05 
8.000000000000e+00 0.000000000000e+00 9.000000000000e+00 1.013250000000e+05 
8.000000000000e+00 0.000000000000e+00 1.000000000000e+01 1.013250000000e+05 
8.000000000000e+00 0.000000000000e+00 1.100000000000e+01 1.013250000000e+05 
8.000000000000e+00 0.000000000000e+00 1.200000000000e+01 1.013250000000e+05 
8.000000000000e+00 0.000000000000e+00 1.300000000000e+01 1.013250000000e+05 
8.000000000000e+00 0.000000000000e+00 1.400000000000e+01 1.013250000000e+05 
8.000000000000e+00 0.000000000000e+00 1.500000000000e+01 1.013250000000e+05 
8.000000000000e+00 0.000000000000e+00 1.600000000000e+01 1.013250000000e+05 
8.000000000000e+00 0.000000000000e+00 1.700000000000e+01 1.013250000000e+05 
8.000000000000e+00 0.000000000000e+00 1.800000000000e+01 1.013250000000e+05 
8.000000000000e+00 0.000000000000e+00 1.900000000000e+01 1.013250000000e+05 
8.000000000000e+00 0.000000000000e+00 2.000000000000e+01 1.013250000000e+05 
8.000000000000e+00 0.000000000000e+00 2.100000000000e+01 1.013250000000e+05 
8.000000000000e+00 0.000000000000e+00 2.200000000000e+01 1.013250000000e+05 
8.000000000000e+00 0.000000000000e+00 2.300000000000e+01 1.013250000000e+05 
8.000000000000e+00 0.000000000000e+00 2.400000000000e+01 1.013250000000e+05 
8.000000000000e+00 0.000000000000e+00 2.500000000000e+01 1.013250000000e+05 
8.000000000000e+00 0.000000000000e+00 2.600000000000e+01 1.013250000000e+05 
8.000000000000e+00 0.000000000000e+00 2.700000000000e+01 1.013250000000e+05 
8.000000000000e+00 0.000000000000e+00 2.800000000000e+01 1.013250000000e+05 
8.000000000000e+00 0.000000000000e+00 2.900000000000e+01 1.013250000000e+05 
8.000000000000e+00 0.000000000000e+00 3.000000000000e+01 1.013250000000e+05 
9.000000000000e+00 0.000000000000e+00 0.000000000000e+00 1.013250000000e+05 
9.000000000000e+00 0.000000000000e+00 1.000000000000e+00 1.013250000000e+05 
9.000000000000e+00 0.000000000000e+00 2.000000000000e+00 1.013250000000e+05 
9.000000000000e+00 0.000000000000e+00 3.000000000000e+00 1.013250000000e+05 
9.000000000000e+00 0.000000000000e+00 4.000000000000e+00 1.013250000000e+05 
9.000000000000e+00 0.000000000000e+00 5.000000000000e+00 1.013250000000e+05 
9.000000000000e+00 0.000000000000e+00 6.000000000000e+00 1.013250000000e+05 
9.000000000000e+00 0.000000000000e+00 7.000000000000e+00 1.013250000000e+05 
9.000000000000e+00 0.000000000000e+00 8.000000000000e+00 1.013250000000e+05 
9.000000000000e+00 0.000000000000e+00 9.000000000000e+00 1.013250000000e+05 
9.000000000000e+00 0.000000000000e+00 1.000000000000e+01 1.013250000000e+05 
9.000000000000e+00 0.000000000000e+00 1.100000000000e+01 1.013250000000e+05 
9.000000000000e+00 0.000000000000e+00 1.200000000000e+01 1.013250000000e+05 
9.000000000000e+00 0.000000000000e+00 1.300000000000e+01 1.013250000000e+05 
9.000000000000e+00 0.000000000000e+00 1.400000000000e+01 1.013250000000e+05 
9.000000000000e+00 0.000000000000e+00 1.500000000000e+01 1.013250000000e+05 
9.000000000000e+00 0.000000000000e+00 1.600000000000e+01 1.013250000000e+05 
9.000000000000e+00 0.000000000000e+00 1.700000000000e+01 1.013250000000e+05 
9.000000000000e+00 0.000000000000e+00 1.800000000000e+01 1.013250000000e+05 
9.000000000000e+00 0.000000000000e+00 1.900000000000e+01 1.013250000000e+05 
9.000000000000e+00 0.000000000000e+00 2.000000000000e+01 1.013250000000e+05 
9.000000000000e+00 0.000000000000e+00 2.100000000000e+01 1.013250000000e+05 
9.000000000000e+00 0.000000000000e+00 2.200000000000e+01 1.013250000000e+05 
9.000000000000e+00 0.000000000000e+00 2.300000000000e+01 1.013250000000e+05 
9.000000000000e+00 0.000000000000e+00 2.400000000000e+01 1.013250000000e+05 
9.000000000000e+00 0.000000000000e+00 2.500000000000e+01 1.013250000000e+05 
9.000000000000e+00 0.000000000000e+00 2.600000000000e+01 1.013250000000e+05 
9.000000000000e+00 0.000000000000e+00 2.700000000000e+01 1.013250000000e+05 
9.000000000000e+00 0.000000000000e+00 2.800000000000e+01 1.013250000000e+05 
9.000000000000e+00 0.000000000000e+00 2.900000000000e+01 1.013250000000e+05 
9.000000000000e+00 0.000000000000e+00 3.000000000000e+01 1.013250000000e+05 
1.000000000000e+01 0.000000000000e+00 0.000000000000e+00 1.013250000000e+05 
1.000000000000e+01 0.000000000000e+00 1.000000000000e+00 1.013250000000e+05 
1.000000000000e+01 0.000000000000e+00 2.000000000000e+00 1.013250000000e+05 
1.000000000000e+01 0.000000000000e+00 3.000000000000e+00 1.013250000000e+05 
1.000000000000e+01 0.000000000000e+00 4.000000000000e+00 1.013250000000e+05 
1.000000000000e+01 0.000000000000e+00 5.000000000000e+00 1.013250000000e+05 
1.000000000000e+01 0.000000000000e+00 6.000000000000e+00 1.013250000000e+05 
1.000000000000e+01 0.000000000000e+00 7.000000000000e+00 1.013250000000e+05 
1.000000000000e+01 0.000000000000e+00 8.000000000000e+00 1.013250000000e+05 
1.000000000000e+01 0.000000000000e+00 9.000000000000e+00 1.013250000000e+05 
1.000000000000e+01 0.000000000000e+00 1.000000000000e+01 1.013250000000e+05 
1.000000000000e+01 0.000000000000e+00 1.100000000000e+01 1.013250000000e+05 
1.000000000000e+01 0.000000000000e+00 1.200000000000e+01 1.013250000000e+05 
1.000000000000e+01 0.000000000000e+00 1.300000000000e+01 1.013250000000e+05 
1.000000000000e+01 0.000000000000e+00 1.400000000000e+01 1.013250000000e+05 
1.000000000000e+01 0.000000000000e+00 1.500000000000e+01 1.013250000000e+05 
1.000000000000e+01 0.000000000000e+00 1.600000000000e+01 1.013250000000e+05 
1.000000000000e+01 0.000000000000e+00 1.700000000000e+01 1.013250000000e+05 
1.000000000000e+01 0.000000000000e+00 1.800000000000e+01 1.013250000000e+05 
1.000000000000e+01 0.000000000000e+00 1.900000000000e+01 1.013250000000e+05 
1.000000000000e+01 0.000000000000e+00 2.000000000000e+01 1.013250000000e+05 
1.000000000000e+01 0.000000000000e+00 2.100000000000e+01 1.013250000000e+05 
1.000000000000e+01 0.000000000000e+00 2.200000000000e+01 1.013250000000e+05 
1.000000000000e+01 0.000000000000e+00 2.300000000000e+01 1.013250000000e+05 
1.000000000000e+01 0.000000000000e+00 2.400000000000e+01 1.013250000000e+05 
1.000000000000e+01 0.000000000000e+00 2.500000000000e+01 1.013250000000e+05 
1.000000000000e+01 0.000000000000e+00 2.600000000000e+01 1.013250000000e+05 
1.000000000000e+01 0.000000000000e+00 2.700000000000e+01 1.013250000000e+05 
1.000000000000e+01 0.000000000000e+00 2.800000000000e+01 1.013250000000e+05 
1.000000000000e+01 0.000000000000e+00 2.900000000000e+01 1.013250000000e+05 
1.000000000000e+01 0.000000000000e+00 3.000000000000e+01 1.013250000000e+05 
1.100000000000e+01 0.000000000000e+00 0.000000000000e+00 1.013250000000e+05 
1.100000000000e+01 0.000000000000e+00 1.000000000000e+00 1.013250000000e+05 
1.100000000000e+01 0.000000000000e+00 2.000000000000e+00 1.013250000000e+05 
1.100000000000e+01 0.000000000000e+00 3.000000000000e+00 1.013250000000e+05 
1.100000000000e+01 0.000000000000e+00 4.000000000000e+00 1.013250000000e+05 
1.100000000000e+01 0.000000000000e+00 5.000000000000e+00 1.013250000000e+05 
1.100000000000e+01 0.000000000000e+00 6.000000000000e+00 1.013250000000e+05 
1.100000000000e+01 0.000000000000e+00 7.000000000000e+00 1.013250000000e+05 
1.100000000000e+01 0.000000000000e+00 8.000000000000e+00 1.013250000000e+05 
1.100000000000e+01 0.000000000000e+00 9.000000000000e+00 1.013250000000e+05 
1.100000000000e+01 0.000000000000e+00 1.000000000000e+01 1.013250000000e+05 
1.100000000000e+01 0.000000000000e+00 1.100000000000e+01 1.013250000000e+05 
1.100000000000e+01 0.000000000000e+00 1.200000000000e+01 1.013250000000e+05 
1.100000000000e+01 0.000000000000e+00 1.300000000000e+01 1.013250000000e+05 
1.100000000000e+01 0.000000000000e+00 1.400000000000e+01 1.013250000000e+05 
1.100000000000e+01 0.000000000000e+00 1.500000000000e+01 1.013250000000e+05 
1.100000000000e+01 0.000000000000e+00 1.600000000000e+01 1.013250000000e+05 
1.100000000000e+01 0.000000000000e+00 1.700000000000e+01 1.013250000000e+05 
1.100000000000e+01 0.000000000000e+00 1.800000000000e+01 1.013250000000e+05 
1.100000000000e+01 0.000000000000e+00 1.900000000000e+01 1.013250000000e+05 
1.100000000000e+01 0.000000000000e+00 2.000000000000e+01 1.013250000000e+05 
1.100000000000e+01 0.000000000000e+00 2.100000000000e+01 1.013250000000e+05 
1.100000000000e+01 0.000000000000e+00 2.200000000000e+01 1.013250000000e+05 
1.100000000000e+01 0.000000000000e+00 2.300000000000e+01 1.013250000000e+05 
1.100000000000e+01 0.000000000000e+00 2.400000000000e+01 1.013250000000e+05 
1.100000000000e+01 0.000000000000e+00 2.500000000000e+01 1.013250000000e+05 
1.100000000000e+01 0.000000000000e+00 2.600000000000e+01 1.013250000000e+05 
1.100000000000e+01 0.000000000000e+00 2.700000000000e+01 1.013250000000e+05 
1.100000000000e+01 0.000000000000e+00 2.800000000000e+01 1.013250000000e+05 
1.100000000000e+01 0.000000000000e+00 2.900000000000e+01 1.013250000000e+05 
1.100000000000e+01 0.000000000000e+00 3.000000000000e+01 1.013250000000e+05 
1.200000000000e+01 0.000000000000e+00 0.000000000000e+00 1.013250000000e+05 
1.200000000000e+01 0.000000000000e+00 1.000000000000e+00 1.013250000000e+05 
1.200000000000e+01 0.000000000000e+00 2.000000000000e+00 1.013250000000e+05 
1.200000000000e+01 0.000000000000e+00 3.000000000000e+00 1.013250000000e+05 
1.200000000000e+01 0.000000000000e+00 4.000000000000e+00 1.013250000000e+05 
1.200000000000e+01 0.000000000000e+00 5.000000000000e+00 1.013250000000e+05 
1.200000000000e+01 0.000000000000e+00 6.000000000000e+00 1.013250000000e+05 
1.200000000000e+01 0.000000000000e+00 7.000000000000e+00 1.013250000000e+05 
1.200000000000e+01 0.000000000000e+00 8.000000000000e+00 1.013250000000e+05 
1.200000000000e+01 0.000000000000e+00 9.000000000000e+00 1.013250000000e+05 
1.200000000000e+01 0.000000000000e+00 1.000000000000e+01 1.013250000000e+05 
1.200000000000e+01 0.000000000000e+00 1.100000000000e+01 1.013250000000e+05 
1.200000000000e+01 0.000000000000e+00 1.200000000000e+01 1.013250000000e+05 
1.200000000000e+01 0.000000000000e+00 1.300000000000e+01 1.013250000000e+05 
1.200000000000e+01 0.000000000000e+00 1.400000000000e+01 1.013250000000e+05 